 Gaussian 16, Revision B.01,
 Gaussian 16:  ES64L-G16RevB.01 20-Dec-2017

 ----------------------------------------------------------------------
 # opt freq m062x/6-311++g(d,p) scrf=(smd,solvent=generic,read) scf=(xq
 c,maxconventionalcycles=400) temperature=443.15
 ----------------------------------------------------------------------

 -------------------
 Title Card Required
 -------------------
 Symbolic Z-matrix:
 Charge =  1 Multiplicity = 1

 SCF Done:  E(RM062X) =  -1035.76875494     A.U. after   14 cycles
 SCF Done:  E(RM062X) =  -1035.77020609     A.U. after   11 cycles
 SCF Done:  E(RM062X) =  -1035.76377139     A.U. after   14 cycles
 SCF Done:  E(RM062X) =  -1035.76998163     A.U. after   11 cycles
 SCF Done:  E(RM062X) =  -1035.77040389     A.U. after    9 cycles
 SCF Done:  E(RM062X) =  -1035.77022033     A.U. after   11 cycles
 SCF Done:  E(RM062X) =  -1035.77043512     A.U. after   11 cycles
 SCF Done:  E(RM062X) =  -1035.77056361     A.U. after   11 cycles
 SCF Done:  E(RM062X) =  -1035.77055916     A.U. after   10 cycles
 SCF Done:  E(RM062X) =  -1035.77051860     A.U. after   11 cycles
 SCF Done:  E(RM062X) =  -1035.77079840     A.U. after   10 cycles
 SCF Done:  E(RM062X) =  -1035.77079913     A.U. after    8 cycles
 SCF Done:  E(RM062X) =  -1035.77079936     A.U. after    9 cycles
 SCF Done:  E(RM062X) =  -1035.77080034     A.U. after    9 cycles
 SCF Done:  E(RM062X) =  -1035.77080065     A.U. after    8 cycles
 SCF Done:  E(RM062X) =  -1035.77080073     A.U. after    7 cycles
 SCF Done:  E(RM062X) =  -1035.77080083     A.U. after    8 cycles
 SCF Done:  E(RM062X) =  -1035.77080086     A.U. after    7 cycles
 SCF Done:  E(RM062X) =  -1035.77080089     A.U. after    7 cycles
 Optimization completed.
    -- Stationary point found.
 Normal termination of Gaussian 16 at Wed Jan 23 11:06:05 2019.

 ----------------------------------------------------------------------
 #N Geom=AllCheck Guess=TCheck SCRF=Check GenChk RM062X/6-311++G(d,p) F
 req
 ----------------------------------------------------------------------

 Structure from the checkpoint file:  "/scratch/ykim/gaussianScratch.558361/Gau-341046.chk"
 -------------------
 Title Card Required
 -------------------
 Charge =  1 Multiplicity = 1

                         Standard orientation:
 ---------------------------------------------------------------------
 Center     Atomic      Atomic             Coordinates (Angstroms)
 Number     Number       Type             X           Y           Z
 ---------------------------------------------------------------------
      1          6           0        3.505649    0.722376   -0.810443
      2          6           0        3.600360    1.025959    0.697658
      3          6           0        2.671150   -0.024850    1.332946
      4          6           0        1.601513   -0.138582    0.226840
      5          8           0        2.344645   -0.114584   -0.967809
      6          6           0        4.707115    0.017668   -1.395333
      7          6           0        0.783995   -1.416558    0.231126
      8          8           0        4.974769   -1.143580   -0.615584
      9          8           0        3.074294    2.339395    0.888262
     10          8           0        0.711265    0.966719    0.290757
     11          8           0        3.317874   -1.239748    1.586297
     12          8           0        0.015031   -1.541707   -0.965825
     13          1           0        4.493403   -0.257043   -2.432141
     14          1           0        5.559101    0.704458   -1.376278
     15          1           0        5.752096   -1.596975   -0.957528
     16          1           0        3.353729    1.659308   -1.353606
     17          1           0        4.620226    0.948765    1.079900
     18          1           0        3.233246    2.610150    1.800852
     19          1           0        2.236513    0.330821    2.268473
     20          1           0        3.926633   -1.427565    0.851699
     21          1           0        1.227589    1.775027    0.440339
     22          1           0        0.081637   -1.402583    1.065595
     23          1           0        1.452839   -2.269975    0.337657
     24          1           0        0.627413   -1.536640   -1.713701
     25          1           0       -0.984207    0.942602   -0.349432
     26          8           0       -1.697944    0.452713   -0.806884
     27          1           0       -1.240559   -0.395811   -1.025247
     28          1           0       -2.795854    0.363542   -0.185274
     29          6           0       -4.005335   -0.986815    1.027144
     30          8           0       -3.796250    0.291766    0.333927
     31          6           0       -4.941714    0.600477   -0.564113
     32          6           0       -6.000490   -0.389209   -0.108130
     33          6           0       -5.183950   -1.614246    0.305506
     34          1           0       -3.074141   -1.550051    0.965050
     35          1           0       -4.227987   -0.743035    2.065144
     36          1           0       -4.598505    0.362433   -1.574479
     37          1           0       -6.544341    0.020485    0.747916
     38          1           0       -6.708898   -0.597026   -0.909321
     39          1           0       -5.731301   -2.294582    0.956503
     40          1           0       -4.843772   -2.163495   -0.575112
     41          6           0       -5.278946    2.062304   -0.423887
     42          1           0       -4.439832    2.692962   -0.723313
     43          1           0       -6.127533    2.292295   -1.072253
     44          1           0       -5.553046    2.293009    0.607539
 ---------------------------------------------------------------------

 SCF Done:  E(RM062X) =  -1035.77080089     A.U. after    1 cycles

 The electronic state is 1-A.
 Alpha  occ. eigenvalues --  -19.71565 -19.67896 -19.66840 -19.66343 -19.66149
 Alpha  occ. eigenvalues --  -19.65997 -19.65623 -19.63590 -10.67080 -10.62819
 Alpha  occ. eigenvalues --  -10.62212 -10.62124 -10.61724 -10.61494 -10.61153
 Alpha  occ. eigenvalues --  -10.60666 -10.55915 -10.55772 -10.54444  -1.24667
 Alpha  occ. eigenvalues --   -1.24222  -1.19924  -1.18551  -1.18155  -1.17920
 Alpha  occ. eigenvalues --   -1.16519  -1.15698  -0.93137  -0.90749  -0.90295
 Alpha  occ. eigenvalues --   -0.88555  -0.83113  -0.79793  -0.76633  -0.73099
 Alpha  occ. eigenvalues --   -0.72310  -0.70984  -0.69320  -0.67770  -0.66410
 Alpha  occ. eigenvalues --   -0.66277  -0.65433  -0.63100  -0.61712  -0.61141
 Alpha  occ. eigenvalues --   -0.60625  -0.59007  -0.56822  -0.56062  -0.55147
 Alpha  occ. eigenvalues --   -0.54838  -0.53809  -0.53230  -0.52491  -0.51738
 Alpha  occ. eigenvalues --   -0.51618  -0.50392  -0.50173  -0.48859  -0.48441
 Alpha  occ. eigenvalues --   -0.47883  -0.46520  -0.46384  -0.45755  -0.44761
 Alpha  occ. eigenvalues --   -0.43928  -0.43807  -0.43607  -0.42063  -0.41878
 Alpha  occ. eigenvalues --   -0.41560  -0.40189  -0.39953  -0.39486  -0.38372
 Alpha  occ. eigenvalues --   -0.37378  -0.34552
 Alpha virt. eigenvalues --   -0.01955  -0.00913  -0.00841  -0.00373   0.00087
 Alpha virt. eigenvalues --    0.00323   0.00769   0.01562   0.01803   0.02000
 Alpha virt. eigenvalues --    0.02124   0.02627   0.03068   0.03333   0.03525

 Mulliken charges:
               1
     1  C    0.252136
     2  C   -0.471490
     3  C   -0.535584
     4  C   -0.150440
     5  O    0.018233
     6  C   -0.519202
     7  C   -0.693420
     8  O   -0.381031
     9  O   -0.279802
    10  O   -0.283610
    11  O   -0.172918
    12  O   -0.300812
    13  H    0.220967
    14  H    0.214363
    15  H    0.357088
    16  H    0.297821
    17  H    0.327191
    18  H    0.309294
    19  H    0.319055
    20  H    0.329668
    21  H    0.359613
    22  H    0.277622
    23  H    0.216527
    24  H    0.332510
    25  H    0.409827
    26  O   -0.691238
    27  H    0.386649
    28  H    0.657086
    29  C   -0.285193
    30  O   -0.204031
    31  C   -0.109473
    32  C   -0.415941
    33  C   -0.378038
    34  H    0.181595
    35  H    0.236590
    36  H    0.274275
    37  H    0.202006
    38  H    0.230013
    39  H    0.246969
    40  H    0.211288
    41  C   -0.573961
    42  H    0.187835
    43  H    0.190830
    44  H    0.199134
 Sum of Mulliken charges =   1.00000

 Dipole moment (field-independent basis, Debye):
    X=             -4.4800    Y=              0.5468    Z=             -0.6377  Tot=              4.5581
 Quadrupole moment (field-independent basis, Debye-Ang):
   XX=             -3.7219   YY=           -105.9969   ZZ=           -104.2941
   XY=              7.8688   XZ=             -9.9445   YZ=              7.1250

  Exact polarizability: 210.733  -1.137 190.855  -3.884  -3.121 181.552
 Approx polarizability: 183.625  -2.773 179.288  -2.169  -0.913 176.785

                      1                      2                      3
                      A                      A                      A
 Frequencies --     19.7312                25.3326                33.6648
 Red. masses --      4.6672                 3.9544                 4.1163
 Frc consts  --      0.0011                 0.0015                 0.0027
 IR Inten    --      0.8506                 0.5854                 2.0018

                      4                      5                      6
                      A                      A                      A
 Frequencies --     42.0191                53.6822                64.0604
 Red. masses --      5.3947                 4.1528                 4.1619
 Frc consts  --      0.0056                 0.0071                 0.0101
 IR Inten    --      8.2329                 3.8554                21.8290

                      7                      8                      9
                      A                      A                      A
 Frequencies --     76.9448                98.4940               124.3244
 Red. masses --      4.1302                 1.8829                 3.6909
 Frc consts  --      0.0144                 0.0108                 0.0336
 IR Inten    --      8.8161                93.1146                 5.5052

                     10                     11                     12
                      A                      A                      A
 Frequencies --    142.4432               153.7144               160.4419
 Red. masses --      2.4320                 3.1356                 2.6321
 Frc consts  --      0.0291                 0.0437                 0.0399
 IR Inten    --     58.9174                47.0372                12.8461

                     13                     14                     15
                      A                      A                      A
 Frequencies --    172.8524               190.9281               227.2371
 Red. masses --      4.8393                 4.9931                 2.9368
 Frc consts  --      0.0852                 0.1072                 0.0893
 IR Inten    --     76.4910                 7.5781                87.7310

                     16                     17                     18
                      A                      A                      A
 Frequencies --    244.3136               255.4198               259.8780
 Red. masses --      1.3521                 3.5809                 1.7418
 Frc consts  --      0.0476                 0.1376                 0.0693
 IR Inten    --     22.5392                 0.8907                 0.9570

                     19                     20                     21
                      A                      A                      A
 Frequencies --    271.8506               296.4183               299.5899
 Red. masses --      3.5940                 3.8295                 4.1702
 Frc consts  --      0.1565                 0.1982                 0.2205
 IR Inten    --      3.8831                 8.6246                23.2849

                     22                     23                     24
                      A                      A                      A
 Frequencies --    324.3592               346.3230               364.5609
 Red. masses --      2.3789                 1.3226                 3.4770
 Frc consts  --      0.1475                 0.0935                 0.2723
 IR Inten    --     11.3568                62.2417                38.1659

                     25                     26                     27
                      A                      A                      A
 Frequencies --    386.9538               424.1541               449.3779
 Red. masses --      1.9517                 3.0280                 1.9515
 Frc consts  --      0.1722                 0.3210                 0.2322
 IR Inten    --     78.1861                92.2981                70.3531

                     28                     29                     30
                      A                      A                      A
 Frequencies --    452.7289               471.4365               491.5259
 Red. masses --      2.4824                 3.3461                 1.2176
 Frc consts  --      0.2998                 0.4382                 0.1733
 IR Inten    --      9.0023                54.5160                 1.3400

                     31                     32                     33
                      A                      A                      A
 Frequencies --    511.7713               518.1572               566.4798
 Red. masses --      4.1527                 3.1597                 2.0956
 Frc consts  --      0.6408                 0.4998                 0.3962
 IR Inten    --     15.8891                 5.4694                76.5493

                     34                     35                     36
                      A                      A                      A
 Frequencies --    576.3914               582.0495               610.3088
 Red. masses --      1.1707                 1.1068                 3.9331
 Frc consts  --      0.2292                 0.2209                 0.8631
 IR Inten    --    149.7984               168.9108                55.5185

                     37                     38                     39
                      A                      A                      A
 Frequencies --    615.9759               644.6031               673.1344
 Red. masses --      3.2660                 3.9330                 1.0970
 Frc consts  --      0.7301                 0.9629                 0.2929
 IR Inten    --    165.0114                62.9337                61.3767

                     40                     41                     42
                      A                      A                      A
 Frequencies --    738.1211               755.0218               830.9459
 Red. masses --      4.7721                 5.7103                 3.2451
 Frc consts  --      1.5319                 1.9179                 1.3202
 IR Inten    --      9.1386                46.5401                48.1801

                     43                     44                     45
                      A                      A                      A
 Frequencies --    853.7801               867.4930               880.9411
 Red. masses --      1.8202                 4.9744                 1.3623
 Frc consts  --      0.7817                 2.2056                 0.6229
 IR Inten    --    174.2061                70.3344               129.3412

                     46                     47                     48
                      A                      A                      A
 Frequencies --    898.1850               912.8705               917.3116
 Red. masses --      1.5970                 2.1657                 2.4666
 Frc consts  --      0.7591                 1.0633                 1.2229
 IR Inten    --     55.9532                72.1367                28.2295

                     49                     50                     51
                      A                      A                      A
 Frequencies --    927.5136               947.1972               961.9923
 Red. masses --      1.7772                 2.6188                 2.2304
 Frc consts  --      0.9008                 1.3843                 1.2161
 IR Inten    --     65.2728                 2.1511               114.3346

                     52                     53                     54
                      A                      A                      A
 Frequencies --    993.6552               994.6242              1014.5494
 Red. masses --      1.5192                 1.6051                 2.4352
 Frc consts  --      0.8838                 0.9356                 1.4769
 IR Inten    --     38.1299                58.3710                26.9447

                     55                     56                     57
                      A                      A                      A
 Frequencies --   1037.9045              1041.1324              1051.9972
 Red. masses --      2.6284                 1.8532                 2.2721
 Frc consts  --      1.6682                 1.1835                 1.4815
 IR Inten    --    155.6450                34.6174               271.0688

                     58                     59                     60
                      A                      A                      A
 Frequencies --   1066.0260              1093.5799              1106.3973
 Red. masses --      2.2253                 5.0196                 2.7461
 Frc consts  --      1.4899                 3.5369                 1.9805
 IR Inten    --    101.9921                63.9653               333.1220

                     61                     62                     63
                      A                      A                      A
 Frequencies --   1112.7749              1128.3303              1137.1987
 Red. masses --      4.2419                 2.8294                 2.8711
 Frc consts  --      3.0947                 2.1224                 2.1876
 IR Inten    --    167.3702                11.5792               102.7031

                     64                     65                     66
                      A                      A                      A
 Frequencies --   1159.6378              1164.6777              1171.4711
 Red. masses --      1.7600                 1.7329                 1.7687
 Frc consts  --      1.3945                 1.3850                 1.4301
 IR Inten    --    183.2056                69.9250               157.6962

                     67                     68                     69
                      A                      A                      A
 Frequencies --   1189.2046              1199.3712              1204.4668
 Red. masses --      1.6219                 1.1645                 3.3274
 Frc consts  --      1.3514                 0.9870                 2.8441
 IR Inten    --    370.1634                15.7761                96.4828

                     70                     71                     72
                      A                      A                      A
 Frequencies --   1227.7952              1233.9397              1247.6597
 Red. masses --      1.3790                 1.3140                 1.3731
 Frc consts  --      1.2248                 1.1787                 1.2594
 IR Inten    --    175.1110               115.2687               132.4284

                     73                     74                     75
                      A                      A                      A
 Frequencies --   1267.9646              1270.4159              1283.0620
 Red. masses --      1.3379                 1.2339                 1.1756
 Frc consts  --      1.2673                 1.1734                 1.1403
 IR Inten    --    205.9614               462.3906                35.5227

                     76                     77                     78
                      A                      A                      A
 Frequencies --   1312.4786              1312.5251              1322.4920
 Red. masses --      1.2090                 1.3663                 1.2616
 Frc consts  --      1.2271                 1.3868                 1.3001
 IR Inten    --     39.3612                 5.2564              1687.4325

                     79                     80                     81
                      A                      A                      A
 Frequencies --   1352.4762              1357.1406              1364.7190
 Red. masses --      1.3373                 1.3935                 1.4060
 Frc consts  --      1.4412                 1.5122                 1.5428
 IR Inten    --     50.7299                 7.3233                26.6438

                     82                     83                     84
                      A                      A                      A
 Frequencies --   1371.8652              1385.5060              1386.4118
 Red. masses --      1.3232                 1.3133                 1.2416
 Frc consts  --      1.4672                 1.4853                 1.4061
 IR Inten    --      2.4236                34.9218                14.0731

                     85                     86                     87
                      A                      A                      A
 Frequencies --   1396.6529              1419.4738              1428.0967
 Red. masses --      1.3290                 1.2793                 1.4622
 Frc consts  --      1.5274                 1.5187                 1.7570
 IR Inten    --     15.0507               117.4687                62.0075

                     88                     89                     90
                      A                      A                      A
 Frequencies --   1444.3003              1450.4869              1461.5125
 Red. masses --      1.5614                 1.2554                 1.5793
 Frc consts  --      1.9190                 1.5562                 1.9876
 IR Inten    --      3.5748               960.5345                 6.9377

                     91                     92                     93
                      A                      A                      A
 Frequencies --   1472.0175              1475.1123              1483.3021
 Red. masses --      1.0666                 1.1039                 1.5267
 Frc consts  --      1.3616                 1.4152                 1.9791
 IR Inten    --     75.6816                26.1270                30.5336

                     94                     95                     96
                      A                      A                      A
 Frequencies --   1485.5228              1489.3493              1489.8022
 Red. masses --      1.2313                 1.0811                 1.2093
 Frc consts  --      1.6009                 1.4129                 1.5814
 IR Inten    --     19.3818                79.4551                85.3570

                     97                     98                     99
                      A                      A                      A
 Frequencies --   1493.9015              1503.0316              1509.2916
 Red. masses --      1.1355                 1.0791                 1.0836
 Frc consts  --      1.4931                 1.4364                 1.4544
 IR Inten    --     31.8761                 5.8164                10.7576

                    100                    101                    102
                      A                      A                      A
 Frequencies --   1534.4752              1585.6029              1721.5266
 Red. masses --      1.1155                 1.0863                 1.0789
 Frc consts  --      1.5475                 1.6091                 1.8839
 IR Inten    --    332.5215               395.5795               791.0209

                    103                    104                    105
                      A                      A                      A
 Frequencies --   3065.8482              3069.4254              3079.6132
 Red. masses --      1.0584                 1.0355                 1.0689
 Frc consts  --      5.8612                 5.7481                 5.9729
 IR Inten    --     30.2534                 6.4796                 6.6146

                    106                    107                    108
                      A                      A                      A
 Frequencies --   3097.4501              3100.8403              3101.9277
 Red. masses --      1.0687                 1.0807                 1.0857
 Frc consts  --      6.0411                 6.1223                 6.1551
 IR Inten    --      6.0520                27.4064                19.9338

                    109                    110                    111
                      A                      A                      A
 Frequencies --   3115.2834              3116.3207              3117.5738
 Red. masses --      1.0587                 1.1054                 1.0591
 Frc consts  --      6.0537                 6.3246                 6.0650
 IR Inten    --     10.9896                15.5441                19.4114

                    112                    113                    114
                      A                      A                      A
 Frequencies --   3119.5784              3127.5034              3149.2727
 Red. masses --      1.0909                 1.0890                 1.1026
 Frc consts  --      6.2550                 6.2758                 6.4433
 IR Inten    --     19.6412                15.3271                 8.2942

                    115                    116                    117
                      A                      A                      A
 Frequencies --   3153.7787              3157.9322              3162.4475
 Red. masses --      1.1039                 1.1012                 1.1050
 Frc consts  --      6.4694                 6.4700                 6.5111
 IR Inten    --     12.3444                10.3720                 8.9617

                    118                    119                    120
                      A                      A                      A
 Frequencies --   3175.1443              3179.2901              3372.0823
 Red. masses --      1.1098                 1.1121                 1.0703
 Frc consts  --      6.5921                 6.6233                 7.1706
 IR Inten    --      8.1205                12.3757               917.4397

                    121                    122                    123
                      A                      A                      A
 Frequencies --   3600.6857              3677.6968              3731.4669
 Red. masses --      1.0607                 1.0671                 1.0664
 Frc consts  --      8.1023                 8.5035                 8.7484
 IR Inten    --    910.3152               523.4436               249.4806

                    124                    125                    126
                      A                      A                      A
 Frequencies --   3813.5368              3831.1417              3863.3688
 Red. masses --      1.0660                 1.0667                 1.0670
 Frc consts  --      9.1344                 9.2245                 9.3831
 IR Inten    --    139.0481               135.3682               158.5617

 - Thermochemistry -
 -------------------
 Temperature   443.150 Kelvin.  Pressure   1.00000 Atm.
 Atom     1 has atomic number  6 and mass  12.00000

 Molecular mass:   285.15494 amu.
 Principal axes and moments of inertia in atomic units:
                           1         2         3
     Eigenvalues --  2201.10231********************
           X            1.00000  -0.00049  -0.00184
           Y            0.00047   0.99996  -0.00929
           Z            0.00185   0.00928   0.99996
 This molecule is an asymmetric top.
 Rotational symmetry number  1.
 Warning -- assumption of classical behavior for rotation
           may cause significant error
 Rotational temperatures (Kelvin)      0.03935     0.00602     0.00577
 Rotational constants (GHZ):           0.81993     0.12544     0.12024
 Zero-point vibrational energy    1005468.0 (Joules/Mol)
                                  240.31262 (Kcal/Mol)
 Warning -- explicit consideration of  48 degrees of freedom as
           vibrations may cause significant error
 Vibrational temperatures:     28.39    36.45    48.44    60.46    77.24
          (Kelvin)             92.17   110.71   141.71   178.88   204.94
                              221.16   230.84   248.70   274.70   326.94
                              351.51   367.49   373.91   391.13   426.48
                              431.04   466.68   498.28   524.52   556.74
                              610.26   646.55   651.38   678.29   707.20
                              736.32   745.51   815.04   829.30   837.44
                              878.10   886.25   927.44   968.49  1061.99
                             1086.31  1195.55  1228.40  1248.13  1267.48
                             1292.29  1313.42  1319.81  1334.49  1362.81
                             1384.09  1429.65  1431.04  1459.71  1493.31
                             1497.96  1513.59  1533.77  1573.42  1591.86
                             1601.03  1623.42  1636.18  1668.46  1675.71
                             1685.49  1711.00  1725.63  1732.96  1766.52
                             1775.36  1795.10  1824.32  1827.85  1846.04
                             1888.36  1888.43  1902.77  1945.91  1952.62
                             1963.53  1973.81  1993.43  1994.74  2009.47
                             2042.31  2054.71  2078.03  2086.93  2102.79
                             2117.90  2122.36  2134.14  2137.34  2142.84
                             2143.49  2149.39  2162.53  2171.53  2207.77
                             2281.33  2476.89  4411.07  4416.22  4430.88
                             4456.54  4461.42  4462.98  4482.20  4483.69
                             4485.49  4488.38  4499.78  4531.10  4537.58
                             4543.56  4550.06  4568.32  4574.29  4851.67
                             5180.58  5291.39  5368.75  5486.83  5512.16
                             5558.53

 Zero-point correction=                           0.382963 (Hartree/Particle)
 Thermal correction to Energy=                    0.428303
 Thermal correction to Enthalpy=                  0.429707
 Thermal correction to Gibbs Free Energy=         0.287815
 Sum of electronic and zero-point Energies=          -1035.387838
 Sum of electronic and thermal Energies=             -1035.342498
 Sum of electronic and thermal Enthalpies=           -1035.341094
 Sum of electronic and thermal Free Energies=        -1035.482986

                     E (Thermal)             CV                S
                      KCal/Mol        Cal/Mol-Kelvin    Cal/Mol-Kelvin
 Total                  268.764            116.306            200.921
 Electronic               0.000              0.000              0.000
 Translational            1.321              2.981             44.810
 Rotational               1.321              2.981             35.699
 Vibrational            266.122            110.345            120.412
 Vibration     1          0.881              1.987              7.448
 Vibration     2          0.881              1.986              6.952
 Vibration     3          0.882              1.985              6.387
 Vibration     4          0.882              1.984              5.947
 Vibration     5          0.883              1.982              5.461
 Vibration     6          0.884              1.980              5.111
 Vibration     7          0.885              1.977              4.749
 Vibration     8          0.888              1.970              4.261
 Vibration     9          0.893              1.960              3.803
 Vibration    10          0.896              1.952              3.537
 Vibration    11          0.899              1.946              3.389
 Vibration    12          0.900              1.943              3.306
 Vibration    13          0.904              1.936              3.161
 Vibration    14          0.909              1.925              2.969
 Vibration    15          0.920              1.899              2.636
 Vibration    16          0.926              1.886              2.499
 Vibration    17          0.931              1.877              2.415
 Vibration    18          0.932              1.873              2.383
 Vibration    19          0.937              1.863              2.299
 Vibration    20          0.948              1.841              2.138
 Vibration    21          0.949              1.838              2.119
 Vibration    22          0.961              1.813              1.974
 Vibration    23          0.972              1.790              1.856
 Vibration    24          0.981              1.771              1.764
 Vibration    25          0.994              1.745              1.659
 Vibration    26          1.016              1.701              1.501
 Vibration    27          1.032              1.669              1.404
 Vibration    28          1.034              1.665              1.392
 Vibration    29          1.046              1.641              1.325
 Vibration    30          1.060              1.614              1.257
 Vibration    31          1.074              1.587              1.192
 Vibration    32          1.079              1.578              1.172
 Vibration    33          1.116              1.510              1.035
 Vibration    34          1.124              1.496              1.009
 Vibration    35          1.128              1.488              0.994
 Vibration    36          1.152              1.447              0.924
 Vibration    37          1.156              1.439              0.911
 Vibration    38          1.181              1.397              0.847
 Vibration    39          1.206              1.355              0.787
 Vibration    40          1.267              1.258              0.667
 Vibration    41          1.283              1.232              0.638
 Vibration    42          1.359              1.120              0.526
 Vibration    43          1.383              1.087              0.496
 Vibration    44          1.398              1.067              0.479
 Vibration    45          1.412              1.047              0.462
 Vibration    46          1.431              1.023              0.442
 Vibration    47          1.447              1.002              0.426
 Vibration    48          1.452              0.996              0.421

                           ! Non-Optimized Parameters !
 Normal termination of Gaussian 16 at Wed Jan 23 11:34:08 2019.
