 Gaussian 16, Revision A.03,
 Gaussian 16:  ES64L-G16RevA.03 25-Dec-2016

 ----------------------------------------------------------------------
 # opt freq m062x/6-311++g(d,p) scrf=(solvent=acetone,smd) scf=(xqc,max
 conventionalcycles=400) temperature=443.15
 ----------------------------------------------------------------------

 -------------------
 Title Card Required
 -------------------
 Symbolic Z-matrix:
 Charge =  1 Multiplicity = 1

 SCF Done:  E(RM062X) =  -957.120734416     A.U. after   14 cycles
 SCF Done:  E(RM062X) =  -957.152079480     A.U. after   12 cycles
 SCF Done:  E(RM062X) =  -957.159588469     A.U. after   13 cycles
 SCF Done:  E(RM062X) =  -957.167248286     A.U. after   13 cycles
 SCF Done:  E(RM062X) =  -957.171848046     A.U. after   13 cycles
 SCF Done:  E(RM062X) =  -957.171459566     A.U. after   12 cycles
 SCF Done:  E(RM062X) =  -957.173290704     A.U. after   13 cycles
 SCF Done:  E(RM062X) =  -957.174945262     A.U. after   13 cycles
 SCF Done:  E(RM062X) =  -957.172317514     A.U. after   15 cycles
 SCF Done:  E(RM062X) =  -957.172597835     A.U. after   13 cycles
 SCF Done:  E(RM062X) =  -957.178772745     A.U. after    9 cycles
 SCF Done:  E(RM062X) =  -957.178771130     A.U. after    9 cycles
 SCF Done:  E(RM062X) =  -957.178771316     A.U. after    8 cycles
 SCF Done:  E(RM062X) =  -957.178771319     A.U. after    8 cycles
 SCF Done:  E(RM062X) =  -957.178773292     A.U. after   10 cycles
 SCF Done:  E(RM062X) =  -957.178771418     A.U. after   10 cycles
 SCF Done:  E(RM062X) =  -957.178771617     A.U. after    8 cycles
 SCF Done:  E(RM062X) =  -957.178773274     A.U. after   10 cycles
 SCF Done:  E(RM062X) =  -957.178771953     A.U. after   10 cycles
 Optimization completed.
    -- Stationary point found.
 Normal termination of Gaussian 16 at Mon Dec 10 19:10:55 2018.

 ----------------------------------------------------------------------
 #N Geom=AllCheck Guess=TCheck SCRF=Check GenChk RM062X/6-311++G(d,p) F
 req
 ----------------------------------------------------------------------

 Structure from the checkpoint file:  "/scratch/ykim/gaussianScratch.6076990/Gau-14303.chk"
 -------------------
 Title Card Required
 -------------------
 Charge =  1 Multiplicity = 1

                         Standard orientation:
 ---------------------------------------------------------------------
 Center     Atomic      Atomic             Coordinates (Angstroms)
 Number     Number       Type             X           Y           Z
 ---------------------------------------------------------------------
      1          6           0       -2.900916    0.139765    1.087610
      2          6           0       -3.031051    1.255215    0.033590
      3          6           0       -2.151459    0.756669   -1.127697
      4          6           0       -1.051087    0.025565   -0.330917
      5          8           0       -1.747781   -0.632552    0.696523
      6          6           0       -4.094962   -0.778207    1.201795
      7          6           0       -0.267945   -1.020867   -1.101078
      8          8           0       -4.390560   -1.304681   -0.088837
      9          8           0       -2.469739    2.434288    0.610526
     10          8           0       -0.131446    0.969958    0.208506
     11          8           0       -2.836975   -0.093932   -2.003672
     12          8           0        0.543814   -1.808064   -0.219028
     13          1           0       -3.861734   -1.587557    1.899253
     14          1           0       -4.940195   -0.202903    1.591002
     15          1           0       -5.211606   -1.808069   -0.055397
     16          1           0       -2.717589    0.592619    2.065792
     17          1           0       -4.063615    1.420789   -0.280153
     18          1           0       -2.634871    3.179153    0.017680
     19          1           0       -1.736407    1.581584   -1.708254
     20          1           0       -3.426999   -0.666195   -1.482844
     21          1           0       -0.629073    1.724000    0.566561
     22          1           0        0.407045   -0.539337   -1.808931
     23          1           0       -0.957610   -1.669270   -1.638732
     24          1           0       -0.036878   -2.267759    0.404977
     25          1           0        1.494527    0.551120    0.707336
     26          8           0        2.171730   -0.162009    0.792997
     27          1           0        1.660024   -0.960096    0.423189
     28          1           0        3.087722    0.058382    0.252153
     29          8           0        4.196464    0.357439   -0.455696
     30          6           0        5.331562    0.123400   -0.032779
     31          6           0        6.513528    0.447465   -0.874996
     32          1           0        6.235759    1.079723   -1.715724
     33          1           0        7.289310    0.915986   -0.266041
     34          1           0        6.923070   -0.499275   -1.244094
     35          6           0        5.566475   -0.477834    1.310282
     36          1           0        5.936286    0.320509    1.963178
     37          1           0        4.659961   -0.903028    1.737791
     38          1           0        6.353941   -1.230987    1.245831
 ---------------------------------------------------------------------

 SCF Done:  E(RM062X) =  -957.178771953     A.U. after    1 cycles

 The electronic state is 1-A.
 Alpha  occ. eigenvalues --  -19.69654 -19.67306 -19.66980 -19.65759 -19.65403
 Alpha  occ. eigenvalues --  -19.65329 -19.64702 -19.62895 -10.67559 -10.66569
 Alpha  occ. eigenvalues --  -10.61216 -10.60841 -10.60755 -10.60720 -10.59675
 Alpha  occ. eigenvalues --  -10.54877 -10.54520  -1.24135  -1.23188  -1.21142
 Alpha  occ. eigenvalues --   -1.18671  -1.17396  -1.17284  -1.15727  -1.15101
 Alpha  occ. eigenvalues --   -0.89982  -0.89480  -0.87912  -0.82500  -0.81945
 Alpha  occ. eigenvalues --   -0.75929  -0.72157  -0.71609  -0.68887  -0.67326
 Alpha  occ. eigenvalues --   -0.65860  -0.64632  -0.63190  -0.62637  -0.60932
 Alpha  occ. eigenvalues --   -0.59743  -0.57725  -0.56295  -0.55952  -0.55591
 Alpha  occ. eigenvalues --   -0.55146  -0.54444  -0.52950  -0.51932  -0.51169
 Alpha  occ. eigenvalues --   -0.50654  -0.49357  -0.49025  -0.47906  -0.47691
 Alpha  occ. eigenvalues --   -0.47002  -0.45882  -0.45606  -0.45192  -0.44535
 Alpha  occ. eigenvalues --   -0.43378  -0.42861  -0.41035  -0.39765  -0.39014
 Alpha  occ. eigenvalues --   -0.37963  -0.37577  -0.36582  -0.33930
 Alpha virt. eigenvalues --   -0.01393  -0.01131  -0.00166   0.00202   0.00661
 Alpha virt. eigenvalues --    0.01056   0.01761   0.02140   0.02673   0.02904
 Alpha virt. eigenvalues --    0.03142   0.03420   0.03615   0.04594   0.05074

 Mulliken charges:
               1
     1  C    0.227181
     2  C   -0.480715
     3  C   -0.560636
     4  C   -0.132900
     5  O   -0.000449
     6  C   -0.532893
     7  C   -0.627759
     8  O   -0.386700
     9  O   -0.294770
    10  O   -0.302652
    11  O   -0.193399
    12  O   -0.324463
    13  H    0.224424
    14  H    0.217249
    15  H    0.363945
    16  H    0.300971
    17  H    0.335829
    18  H    0.315789
    19  H    0.329129
    20  H    0.328400
    21  H    0.363916
    22  H    0.313625
    23  H    0.236023
    24  H    0.351781
    25  H    0.430133
    26  O   -0.601177
    27  H    0.449994
    28  H    0.483881
    29  O   -0.329072
    30  C    0.447392
    31  C   -0.697254
    32  H    0.193119
    33  H    0.216171
    34  H    0.235125
    35  C   -0.551273
    36  H    0.240747
    37  H    0.191665
    38  H    0.219623
 Sum of Mulliken charges =   1.00000

 Dipole moment (field-independent basis, Debye):
    X=              5.8871    Y=              0.2138    Z=              3.1359  Tot=              6.6737
 Quadrupole moment (field-independent basis, Debye-Ang):
   XX=             19.2904   YY=            -85.5066   ZZ=           -101.9206
   XY=             -0.1744   XZ=             -4.0269   YZ=             -4.8188

  Exact polarizability: 196.583   1.916 160.381  -3.150  -3.387 166.209
 Approx polarizability: 166.087   1.667 148.840   1.807  -1.428 151.129

                      1                      2                      3
                      A                      A                      A
 Frequencies --     16.2447                19.7163                34.5815
 Red. masses --      4.6789                 4.2202                 3.3515
 Frc consts  --      0.0007                 0.0010                 0.0024
 IR Inten    --      1.8204                 4.1746                 1.8377

                      4                      5                      6
                      A                      A                      A
 Frequencies --     47.2383                64.8143                70.5404
 Red. masses --      5.3149                 4.7076                 4.3168
 Frc consts  --      0.0070                 0.0117                 0.0127
 IR Inten    --      4.8315                 4.5185                 0.9558

                      7                      8                      9
                      A                      A                      A
 Frequencies --     91.1871               114.5579               127.2161
 Red. masses --      3.6533                 2.4757                 1.1403
 Frc consts  --      0.0179                 0.0191                 0.0109
 IR Inten    --      2.5141                84.3483                 2.5116

                     10                     11                     12
                      A                      A                      A
 Frequencies --    134.3160               144.1219               151.4317
 Red. masses --      1.2007                 3.1998                 2.5588
 Frc consts  --      0.0128                 0.0392                 0.0346
 IR Inten    --      2.1874                62.3482                46.8120

                     13                     14                     15
                      A                      A                      A
 Frequencies --    165.0306               176.4872               189.5058
 Red. masses --      1.8799                 4.8184                 5.4061
 Frc consts  --      0.0302                 0.0884                 0.1144
 IR Inten    --     48.1512                57.4978                 5.8555

                     16                     17                     18
                      A                      A                      A
 Frequencies --    249.8273               268.5759               276.8466
 Red. masses --      5.2673                 4.1807                 3.4563
 Frc consts  --      0.1937                 0.1777                 0.1561
 IR Inten    --     81.3085               102.6152               256.3107

                     19                     20                     21
                      A                      A                      A
 Frequencies --    296.8195               302.9420               307.6356
 Red. masses --      3.5645                 3.8348                 3.5948
 Frc consts  --      0.1850                 0.2074                 0.2004
 IR Inten    --     96.7925               113.0645                55.3878

                     22                     23                     24
                      A                      A                      A
 Frequencies --    365.3820               370.0125               401.2415
 Red. masses --      1.9930                 1.9693                 2.1668
 Frc consts  --      0.1568                 0.1589                 0.2055
 IR Inten    --     12.6381                77.2902               115.2897

                     25                     26                     27
                      A                      A                      A
 Frequencies --    414.4500               430.7711               456.6504
 Red. masses --      2.3301                 3.3050                 2.6479
 Frc consts  --      0.2358                 0.3613                 0.3253
 IR Inten    --     33.1580                84.7805                41.9923

                     28                     29                     30
                      A                      A                      A
 Frequencies --    478.2278               498.1711               511.2418
 Red. masses --      1.8636                 1.9105                 3.5710
 Frc consts  --      0.2511                 0.2794                 0.5499
 IR Inten    --    142.4061                 8.2563                 7.1566

                     31                     32                     33
                      A                      A                      A
 Frequencies --    565.6566               587.0827               593.2418
 Red. masses --      1.2268                 1.1357                 1.1789
 Frc consts  --      0.2313                 0.2306                 0.2445
 IR Inten    --     55.4672               155.6473               140.3912

                     34                     35                     36
                      A                      A                      A
 Frequencies --    597.5392               612.7200               645.4412
 Red. masses --      3.5019                 3.8819                 3.7956
 Frc consts  --      0.7367                 0.8586                 0.9316
 IR Inten    --    246.2750                45.9227                85.8849

                     37                     38                     39
                      A                      A                      A
 Frequencies --    723.4929               738.9227               755.6890
 Red. masses --      1.0947                 4.8207                 5.8805
 Frc consts  --      0.3376                 1.5508                 1.9786
 IR Inten    --     24.3509                13.1003                53.6243

                     40                     41                     42
                      A                      A                      A
 Frequencies --    837.7519               869.9285               889.4625
 Red. masses --      2.5404                 5.2833                 1.3879
 Frc consts  --      1.0505                 2.3557                 0.6469
 IR Inten    --      4.4671                62.3467                 5.5479

                     43                     44                     45
                      A                      A                      A
 Frequencies --    901.9740               915.0984               938.8350
 Red. masses --      2.1843                 2.9186                 1.4860
 Frc consts  --      1.0470                 1.4400                 0.7717
 IR Inten    --     47.3007                76.8266                 3.8257

                     46                     47                     48
                      A                      A                      A
 Frequencies --    955.7558              1011.2060              1013.8852
 Red. masses --      2.2721                 2.3757                 1.5471
 Frc consts  --      1.2228                 1.4312                 0.9370
 IR Inten    --     64.0167                26.0453               215.0130

                     49                     50                     51
                      A                      A                      A
 Frequencies --   1033.6886              1065.4835              1084.2877
 Red. masses --      2.3130                 1.9420                 3.8903
 Frc consts  --      1.4561                 1.2989                 2.6947
 IR Inten    --     59.9410                67.0561                33.6791

                     52                     53                     54
                      A                      A                      A
 Frequencies --   1094.4619              1105.0238              1113.2824
 Red. masses --      1.6114                 2.3846                 3.1791
 Frc consts  --      1.1373                 1.7156                 2.3215
 IR Inten    --     36.3835               202.5547               191.6233

                     55                     56                     57
                      A                      A                      A
 Frequencies --   1113.9443              1129.2368              1135.2531
 Red. masses --      2.3879                 2.8864                 2.6541
 Frc consts  --      1.7458                 2.1686                 2.0154
 IR Inten    --     23.1553                 9.2974                94.3044

                     58                     59                     60
                      A                      A                      A
 Frequencies --   1157.8443              1199.8461              1204.3350
 Red. masses --      1.8418                 1.2128                 3.1068
 Frc consts  --      1.4547                 1.0287                 2.6550
 IR Inten    --     79.0462                 4.6526               105.6593

                     61                     62                     63
                      A                      A                      A
 Frequencies --   1229.8957              1240.3530              1263.0602
 Red. masses --      1.3378                 1.3678                 1.4111
 Frc consts  --      1.1923                 1.2399                 1.3264
 IR Inten    --    116.4800               189.6239                 2.8525

                     64                     65                     66
                      A                      A                      A
 Frequencies --   1278.5561              1282.6172              1314.6047
 Red. masses --      1.4748                 1.3396                 1.2208
 Frc consts  --      1.4205                 1.2984                 1.2430
 IR Inten    --     31.2208                39.8906                21.3478

                     67                     68                     69
                      A                      A                      A
 Frequencies --   1352.1371              1357.3591              1366.3264
 Red. masses --      1.2280                 1.3114                 1.3399
 Frc consts  --      1.3228                 1.4235                 1.4738
 IR Inten    --    207.2863               266.3576                30.3198

                     70                     71                     72
                      A                      A                      A
 Frequencies --   1369.7461              1376.2354              1383.7211
 Red. masses --      1.3615                 1.1974                 1.3282
 Frc consts  --      1.5050                 1.3362                 1.4984
 IR Inten    --     39.8944                27.5769                73.6157

                     73                     74                     75
                      A                      A                      A
 Frequencies --   1407.9015              1415.7956              1432.8578
 Red. masses --      1.6954                 1.2862                 1.0758
 Frc consts  --      1.9800                 1.5191                 1.3014
 IR Inten    --    152.3496               392.7821               184.7373

                     76                     77                     78
                      A                      A                      A
 Frequencies --   1440.9385              1442.4352              1451.3964
 Red. masses --      1.0475                 1.5640                 1.1186
 Frc consts  --      1.2815                 1.9172                 1.3883
 IR Inten    --      5.5218                 5.5947               262.5506

                     79                     80                     81
                      A                      A                      A
 Frequencies --   1460.0401              1472.4826              1478.8486
 Red. masses --      1.5916                 1.1276                 1.9257
 Frc consts  --      1.9990                 1.4404                 2.4813
 IR Inten    --      1.6099                70.8848                16.5534

                     82                     83                     84
                      A                      A                      A
 Frequencies --   1489.1620              1498.2129              1504.9791
 Red. masses --      1.2022                 1.0788                 1.0849
 Frc consts  --      1.5708                 1.4267                 1.4478
 IR Inten    --     77.3210                13.2138                12.9167

                     85                     86                     87
                      A                      A                      A
 Frequencies --   1601.4119              1667.6202              1710.4264
 Red. masses --      1.6526                 1.0438                 1.2907
 Frc consts  --      2.4971                 1.7103                 2.2247
 IR Inten    --   2776.7598               115.9757              1200.4172

                     88                     89                     90
                      A                      A                      A
 Frequencies --   1912.9519              2830.5596              3062.7982
 Red. masses --      1.7164                 1.0764                 1.0394
 Frc consts  --      3.7005                 5.0811                 5.7450
 IR Inten    --   2788.7290              1538.6637                 5.8184

                     91                     92                     93
                      A                      A                      A
 Frequencies --   3067.8645              3070.0840              3100.2410
 Red. masses --      1.0404                 1.0580                 1.0861
 Frc consts  --      5.7691                 5.8756                 6.1505
 IR Inten    --      4.5265                32.7684                23.0527

                     94                     95                     96
                      A                      A                      A
 Frequencies --   3113.9994              3120.7355              3125.8144
 Red. masses --      1.0893                 1.1087                 1.0597
 Frc consts  --      6.2234                 6.3618                 6.1001
 IR Inten    --     10.9892                26.0480                 6.2979

                     97                     98                     99
                      A                      A                      A
 Frequencies --   3133.4580              3134.7140              3140.2063
 Red. masses --      1.0886                 1.0949                 1.0951
 Frc consts  --      6.2975                 6.3389                 6.3624
 IR Inten    --     19.0619                 0.1746                 2.3848

                    100                    101                    102
                      A                      A                      A
 Frequencies --   3185.8690              3186.8072              3191.9771
 Red. masses --      1.1057                 1.1105                 1.1061
 Frc consts  --      6.6121                 6.6449                 6.6397
 IR Inten    --      4.0926                 3.3337                 2.8009

                    103                    104                    105
                      A                      A                      A
 Frequencies --   3456.5357              3659.1018              3709.4719
 Red. masses --      1.0604                 1.0673                 1.0666
 Frc consts  --      7.4644                 8.4196                 8.6476
 IR Inten    --   1146.9727               605.8440               314.6088

                    106                    107                    108
                      A                      A                      A
 Frequencies --   3808.2948              3831.9172              3866.8376
 Red. masses --      1.0661                 1.0666                 1.0670
 Frc consts  --      9.1101                 9.2277                 9.3996
 IR Inten    --    183.3160               158.2067               178.0202

 - Thermochemistry -
 -------------------
 Temperature   443.150 Kelvin.  Pressure   1.00000 Atm.
 Atom     1 has atomic number  6 and mass  12.00000

 Molecular mass:   257.12364 amu.
 Principal axes and moments of inertia in atomic units:
                           1         2         3
     Eigenvalues --  1819.55645********************
           X            1.00000  -0.00008  -0.00064
           Y            0.00004   0.99802  -0.06284
           Z            0.00064   0.06284   0.99802
 This molecule is an asymmetric top.
 Rotational symmetry number  1.
 Warning -- assumption of classical behavior for rotation
           may cause significant error
 Rotational temperatures (Kelvin)      0.04760     0.00749     0.00734
 Rotational constants (GHZ):           0.99186     0.15606     0.15288
 Zero-point vibrational energy     841964.8 (Joules/Mol)
                                  201.23441 (Kcal/Mol)
 Warning -- explicit consideration of  44 degrees of freedom as
           vibrations may cause significant error
 Vibrational temperatures:     23.37    28.37    49.75    67.97    93.25
          (Kelvin)            101.49   131.20   164.82   183.04   193.25
                              207.36   217.88   237.44   253.93   272.66
                              359.45   386.42   398.32   427.06   435.87
                              442.62   525.70   532.37   577.30   596.30
                              619.78   657.02   688.06   716.76   735.56
                              813.85   844.68   853.54   859.73   881.57
                              928.65  1040.94  1063.14  1087.27  1205.34
                             1251.63  1279.74  1297.74  1316.62  1350.77
                             1375.12  1454.90  1458.75  1487.25  1532.99
                             1560.05  1574.69  1589.88  1601.77  1602.72
                             1624.72  1633.38  1665.88  1726.31  1732.77
                             1769.55  1784.59  1817.26  1839.56  1845.40
                             1891.42  1945.42  1952.94  1965.84  1970.76
                             1980.10  1990.87  2025.66  2037.01  2061.56
                             2073.19  2075.34  2088.24  2100.67  2118.57
                             2127.73  2142.57  2155.59  2165.33  2304.07
                             2399.33  2460.92  2752.31  4072.54  4406.68
                             4413.97  4417.17  4460.56  4480.35  4490.04
                             4497.35  4508.35  4510.15  4518.06  4583.75
                             4585.10  4592.54  4973.18  5264.63  5337.10
                             5479.29  5513.27  5563.52

 Zero-point correction=                           0.320687 (Hartree/Particle)
 Thermal correction to Energy=                    0.362822
 Thermal correction to Enthalpy=                  0.364226
 Thermal correction to Gibbs Free Energy=         0.227781
 Sum of electronic and zero-point Energies=           -956.858085
 Sum of electronic and thermal Energies=              -956.815950
 Sum of electronic and thermal Enthalpies=            -956.814546
 Sum of electronic and thermal Free Energies=         -956.950991

                     E (Thermal)             CV                S
                      KCal/Mol        Cal/Mol-Kelvin    Cal/Mol-Kelvin
 Total                  227.674            103.984            193.209
 Electronic               0.000              0.000              0.000
 Translational            1.321              2.981             44.502
 Rotational               1.321              2.981             35.055
 Vibrational            225.032             98.022            113.652
 Vibration     1          0.881              1.987              7.834
 Vibration     2          0.881              1.987              7.450
 Vibration     3          0.882              1.985              6.334
 Vibration     4          0.882              1.983              5.715
 Vibration     5          0.884              1.980              5.088
 Vibration     6          0.884              1.979              4.921
 Vibration     7          0.887              1.973              4.413
 Vibration     8          0.891              1.964              3.964
 Vibration     9          0.893              1.959              3.758
 Vibration    10          0.895              1.956              3.652
 Vibration    11          0.897              1.951              3.514
 Vibration    12          0.898              1.948              3.418
 Vibration    13          0.902              1.940              3.251
 Vibration    14          0.905              1.934              3.121
 Vibration    15          0.908              1.926              2.983
 Vibration    16          0.928              1.882              2.457
 Vibration    17          0.936              1.866              2.321
 Vibration    18          0.939              1.859              2.265
 Vibration    19          0.948              1.840              2.136
 Vibration    20          0.951              1.834              2.098
 Vibration    21          0.953              1.830              2.070
 Vibration    22          0.982              1.770              1.760
 Vibration    23          0.984              1.765              1.738
 Vibration    24          1.002              1.729              1.597
 Vibration    25          1.010              1.713              1.541
 Vibration    26          1.020              1.693              1.475
 Vibration    27          1.036              1.660              1.377
 Vibration    28          1.051              1.632              1.301
 Vibration    29          1.065              1.605              1.235
 Vibration    30          1.074              1.588              1.194
 Vibration    31          1.115              1.512              1.037
 Vibration    32          1.132              1.481              0.981
 Vibration    33          1.137              1.472              0.966
 Vibration    34          1.141              1.466              0.955
 Vibration    35          1.154              1.444              0.919
 Vibration    36          1.182              1.396              0.845
 Vibration    37          1.253              1.279              0.692
 Vibration    38          1.267              1.256              0.665
 Vibration    39          1.284              1.231              0.637
 Vibration    40          1.367              1.110              0.517
 Vibration    41          1.401              1.063              0.476
 Vibration    42          1.422              1.035              0.452
 Vibration    43          1.435              1.017              0.438
 Vibration    44          1.450              0.999              0.423

                           ! Non-Optimized Parameters !
 Normal termination of Gaussian 16 at Mon Dec 10 19:41:48 2018.
