 Gaussian 16, Revision B.01,
 Gaussian 16:  ES64L-G16RevB.01 20-Dec-2017

 ----------------------------------------------------------------------
 # opt freq 6-311++g(d,p) m062x scrf=(smd,solvent=ethanol) scf=(xqc,max
 conventionalcycles=400) temperature=443.15
 ----------------------------------------------------------------------

 -------------------
 Title Card Required
 -------------------
 Symbolic Z-matrix:
 Charge =  1 Multiplicity = 1

 SCF Done:  E(RM062X) =  -919.085490681     A.U. after   13 cycles
 SCF Done:  E(RM062X) =  -919.086229283     A.U. after   11 cycles
 SCF Done:  E(RM062X) =  -919.082284812     A.U. after   13 cycles
 SCF Done:  E(RM062X) =  -919.085993596     A.U. after   10 cycles
 SCF Done:  E(RM062X) =  -919.086430547     A.U. after    9 cycles
 SCF Done:  E(RM062X) =  -919.086209814     A.U. after   11 cycles
 SCF Done:  E(RM062X) =  -919.086731143     A.U. after   11 cycles
 SCF Done:  E(RM062X) =  -919.086594004     A.U. after   10 cycles
 SCF Done:  E(RM062X) =  -919.086663415     A.U. after   11 cycles
 SCF Done:  E(RM062X) =  -919.086708197     A.U. after   10 cycles
 SCF Done:  E(RM062X) =  -919.086761526     A.U. after    7 cycles
 SCF Done:  E(RM062X) =  -919.086761047     A.U. after    7 cycles
 SCF Done:  E(RM062X) =  -919.086760604     A.U. after    7 cycles
 SCF Done:  E(RM062X) =  -919.086761586     A.U. after    8 cycles
 SCF Done:  E(RM062X) =  -919.086759943     A.U. after    8 cycles
 SCF Done:  E(RM062X) =  -919.086759558     A.U. after    7 cycles
 SCF Done:  E(RM062X) =  -919.086759417     A.U. after    7 cycles
 SCF Done:  E(RM062X) =  -919.086759132     A.U. after    7 cycles
 SCF Done:  E(RM062X) =  -919.086759033     A.U. after    7 cycles
 Optimization completed.
    -- Stationary point found.
 Normal termination of Gaussian 16 at Tue Jan 15 10:23:18 2019.

 ----------------------------------------------------------------------
 #N Geom=AllCheck Guess=TCheck SCRF=Check GenChk RM062X/6-311++G(d,p) F
 req
 ----------------------------------------------------------------------

 Structure from the checkpoint file:  "/scratch/ykim/gaussianScratch.547149/Gau-280132.chk"
 -------------------
 Title Card Required
 -------------------
 Charge =  1 Multiplicity = 1

                         Standard orientation:
 ---------------------------------------------------------------------
 Center     Atomic      Atomic             Coordinates (Angstroms)
 Number     Number       Type             X           Y           Z
 ---------------------------------------------------------------------
      1          6           0        2.638270    0.228852   -1.118344
      2          6           0        2.768904    1.243228    0.030226
      3          6           0        1.881256    0.654037    1.139180
      4          6           0        0.779080   -0.013567    0.291848
      5          8           0        1.467124   -0.557526   -0.814150
      6          6           0        3.818291   -0.698614   -1.292140
      7          6           0        0.031770   -1.137517    0.985207
      8          8           0        4.059778   -1.368144   -0.058162
      9          8           0        2.221838    2.473483   -0.437062
     10          8           0       -0.165676    0.952327   -0.133135
     11          8           0        2.566237   -0.256173    1.964359
     12          8           0       -0.909129   -1.764665    0.109975
     13          1           0        3.593544   -1.424466   -2.079041
     14          1           0        4.688618   -0.106884   -1.590414
     15          1           0        4.886653   -1.859994   -0.110710
     16          1           0        2.477260    0.767160   -2.056232
     17          1           0        3.801329    1.370498    0.363641
     18          1           0        2.318655    3.138466    0.256606
     19          1           0        1.463129    1.434206    1.776162
     20          1           0        3.142407   -0.811789    1.408420
     21          1           0        0.307675    1.739170   -0.449262
     22          1           0       -0.538606   -0.734839    1.822888
     23          1           0        0.742437   -1.878008    1.349043
     24          1           0       -0.437260   -2.201987   -0.612301
     25          1           0       -1.993404    0.694581   -0.579996
     26          8           0       -2.618456   -0.057111   -0.640093
     27          1           0       -2.035443   -0.846245   -0.350571
     28          1           0       -3.445924    0.089365    0.008023
     29          8           0       -4.584647    0.260077    0.815039
     30          1           0       -4.420720    0.897108    1.523226
     31          6           0       -5.788536    0.620713    0.095845
     32          1           0       -6.580583    0.781691    0.828426
     33          1           0       -5.609560    1.551988   -0.446677
     34          6           0       -6.128475   -0.511046   -0.843366
     35          1           0       -6.306289   -1.433204   -0.286207
     36          1           0       -5.320370   -0.679440   -1.558872
     37          1           0       -7.033461   -0.262033   -1.401067
 ---------------------------------------------------------------------

 SCF Done:  E(RM062X) =  -919.086759033     A.U. after    1 cycles

 The electronic state is 1-A.
 Alpha  occ. eigenvalues --  -19.68959 -19.66508 -19.66442 -19.64945 -19.64750
 Alpha  occ. eigenvalues --  -19.64629 -19.64221 -19.63096 -10.65993 -10.60696
 Alpha  occ. eigenvalues --  -10.60416 -10.60388 -10.60151 -10.59431 -10.59282
 Alpha  occ. eigenvalues --  -10.52677  -1.23130  -1.21924  -1.18312  -1.17527
 Alpha  occ. eigenvalues --   -1.16826  -1.16638  -1.15473  -1.14453  -0.89433
 Alpha  occ. eigenvalues --   -0.87473  -0.85979  -0.81950  -0.75453  -0.71764
 Alpha  occ. eigenvalues --   -0.71155  -0.68589  -0.68184  -0.66378  -0.64989
 Alpha  occ. eigenvalues --   -0.63778  -0.62049  -0.61470  -0.60345  -0.59248
 Alpha  occ. eigenvalues --   -0.56537  -0.55248  -0.54820  -0.54123  -0.52790
 Alpha  occ. eigenvalues --   -0.52072  -0.50935  -0.50656  -0.49401  -0.49013
 Alpha  occ. eigenvalues --   -0.48313  -0.47235  -0.45432  -0.45405  -0.44668
 Alpha  occ. eigenvalues --   -0.43745  -0.43161  -0.42475  -0.42341  -0.40427
 Alpha  occ. eigenvalues --   -0.39298  -0.38512  -0.38247  -0.37246  -0.36136
 Alpha  occ. eigenvalues --   -0.33717
 Alpha virt. eigenvalues --   -0.00827   0.00179   0.00610   0.00896   0.01425
 Alpha virt. eigenvalues --    0.01762   0.02191   0.02968   0.03110   0.03456
 Alpha virt. eigenvalues --    0.03671   0.04090   0.05162   0.05628   0.05809

 Mulliken charges:
               1
     1  C    0.417890
     2  C   -0.567072
     3  C   -0.404735
     4  C   -0.228014
     5  O   -0.071614
     6  C   -0.573837
     7  C   -0.593581
     8  O   -0.411783
     9  O   -0.313524
    10  O   -0.321141
    11  O   -0.250006
    12  O   -0.352150
    13  H    0.222499
    14  H    0.211453
    15  H    0.377711
    16  H    0.309238
    17  H    0.331370
    18  H    0.329027
    19  H    0.326811
    20  H    0.345556
    21  H    0.385448
    22  H    0.302120
    23  H    0.226232
    24  H    0.369190
    25  H    0.423316
    26  O   -0.618084
    27  H    0.472439
    28  H    0.528822
    29  O   -0.415977
    30  H    0.365405
    31  C   -0.289662
    32  H    0.196074
    33  H    0.205079
    34  C   -0.484512
    35  H    0.187793
    36  H    0.176221
    37  H    0.185999
 Sum of Mulliken charges =   1.00000

 Dipole moment (field-independent basis, Debye):
    X=             -4.4511    Y=              3.2202    Z=             -0.6022  Tot=              5.5268
 Quadrupole moment (field-independent basis, Debye-Ang):
   XX=             -9.6425   YY=            -79.8714   ZZ=            -96.2178
   XY=            -13.3571   XZ=            -13.9126   YZ=              9.4334

  Exact polarizability: 179.690  -4.352 166.906  -2.521   0.551 164.678
 Approx polarizability: 147.365  -4.038 142.987  -1.024   0.102 141.967

                      1                      2                      3
                      A                      A                      A
 Frequencies --     17.2113                31.2646                46.2086
 Red. masses --      4.4231                 4.6009                 4.3502
 Frc consts  --      0.0008                 0.0026                 0.0055
 IR Inten    --      0.4319                 1.1408                 6.4689

                      4                      5                      6
                      A                      A                      A
 Frequencies --     54.6332                58.0430                75.5297
 Red. masses --      4.9132                 2.1732                 3.5171
 Frc consts  --      0.0086                 0.0043                 0.0118
 IR Inten    --     12.2547                 0.6824                 1.1787

                      7                      8                      9
                      A                      A                      A
 Frequencies --     84.1430               126.0778               133.8757
 Red. masses --      3.2818                 4.2385                 5.2796
 Frc consts  --      0.0137                 0.0397                 0.0558
 IR Inten    --      0.9974                 2.9680                 9.8463

                     10                     11                     12
                      A                      A                      A
 Frequencies --    142.4368               162.3977               188.1538
 Red. masses --      3.9207                 4.3555                 5.6756
 Frc consts  --      0.0469                 0.0677                 0.1184
 IR Inten    --     19.7514                32.0162                16.6785

                     13                     14                     15
                      A                      A                      A
 Frequencies --    215.9603               247.0454               253.6894
 Red. masses --      1.1191                 5.2724                 1.2026
 Frc consts  --      0.0308                 0.1896                 0.0456
 IR Inten    --    213.2538                35.3882                11.3951

                     16                     17                     18
                      A                      A                      A
 Frequencies --    264.8240               284.9597               299.5862
 Red. masses --      3.7749                 3.5364                 4.2964
 Frc consts  --      0.1560                 0.1692                 0.2272
 IR Inten    --     47.8836               170.0477                26.7484

                     19                     20                     21
                      A                      A                      A
 Frequencies --    303.1550               353.0495               354.2941
 Red. masses --      3.1018                 3.4199                 1.3594
 Frc consts  --      0.1680                 0.2511                 0.1005
 IR Inten    --     14.4066               220.0618               105.5450

                     22                     23                     24
                      A                      A                      A
 Frequencies --    363.7214               392.9914               418.9127
 Red. masses --      3.7860                 2.0934                 1.4576
 Frc consts  --      0.2951                 0.1905                 0.1507
 IR Inten    --     47.7362                53.7590                75.3441

                     25                     26                     27
                      A                      A                      A
 Frequencies --    429.9310               439.7963               448.1896
 Red. masses --      2.2912                 2.3330                 1.7211
 Frc consts  --      0.2495                 0.2659                 0.2037
 IR Inten    --    187.5420                37.0564                12.3101

                     28                     29                     30
                      A                      A                      A
 Frequencies --    457.6023               475.5492               500.4249
 Red. masses --      1.5407                 1.3572                 1.5820
 Frc consts  --      0.1901                 0.1808                 0.2334
 IR Inten    --    199.3588                78.3881               107.7503

                     31                     32                     33
                      A                      A                      A
 Frequencies --    520.2400               571.1238               608.2902
 Red. masses --      2.9468                 1.1311                 5.2105
 Frc consts  --      0.4699                 0.2174                 1.1359
 IR Inten    --     81.8741               207.6743                42.0532

                     34                     35                     36
                      A                      A                      A
 Frequencies --    644.3194               674.6232               740.2654
 Red. masses --      4.1958                 1.1026                 4.9299
 Frc consts  --      1.0263                 0.2956                 1.5917
 IR Inten    --     86.4851                85.4702                15.3538

                     37                     38                     39
                      A                      A                      A
 Frequencies --    758.5517               819.6575               869.6317
 Red. masses --      6.1333                 1.0868                 5.2124
 Frc consts  --      2.0793                 0.4302                 2.3225
 IR Inten    --     61.1139                 0.6039                63.3214

                     40                     41                     42
                      A                      A                      A
 Frequencies --    898.5488               908.8207               918.3805
 Red. masses --      2.2176                 2.1444                 2.8451
 Frc consts  --      1.0549                 1.0435                 1.4138
 IR Inten    --     38.0357                31.1136                82.3575

                     43                     44                     45
                      A                      A                      A
 Frequencies --    958.2474              1001.3460              1013.4105
 Red. masses --      1.9916                 1.3512                 2.3991
 Frc consts  --      1.0775                 0.7982                 1.4516
 IR Inten    --     15.3813               239.1798                22.6244

                     46                     47                     48
                      A                      A                      A
 Frequencies --   1036.0481              1055.1986              1075.0530
 Red. masses --      2.5295                 2.4882                 2.5840
 Frc consts  --      1.5997                 1.6323                 1.7595
 IR Inten    --     92.9961               104.4113               193.3707

                     49                     50                     51
                      A                      A                      A
 Frequencies --   1077.2859              1090.8249              1109.9488
 Red. masses --      1.6208                 4.3504                 2.3978
 Frc consts  --      1.1083                 3.0499                 1.7405
 IR Inten    --     64.4163                73.0419               115.9356

                     52                     53                     54
                      A                      A                      A
 Frequencies --   1124.5589              1131.4594              1144.9452
 Red. masses --      3.1994                 3.3425                 1.7266
 Frc consts  --      2.3838                 2.5212                 1.3336
 IR Inten    --    206.9788                28.4518                70.4047

                     55                     56                     57
                      A                      A                      A
 Frequencies --   1173.2049              1179.1633              1204.5369
 Red. masses --      2.9769                 1.5515                 1.2160
 Frc consts  --      2.4142                 1.2710                 1.0395
 IR Inten    --    216.9615                17.6083                 6.3117

                     58                     59                     60
                      A                      A                      A
 Frequencies --   1215.9733              1236.4512              1246.0337
 Red. masses --      2.3202                 1.4465                 1.4110
 Frc consts  --      2.0213                 1.3030                 1.2907
 IR Inten    --    118.1275                97.2765               145.1029

                     61                     62                     63
                      A                      A                      A
 Frequencies --   1260.5991              1263.2007              1281.1134
 Red. masses --      1.3147                 1.2646                 1.2435
 Frc consts  --      1.2309                 1.1889                 1.2024
 IR Inten    --     73.5242                53.7877                46.4543

                     64                     65                     66
                      A                      A                      A
 Frequencies --   1312.1757              1312.4512              1356.0539
 Red. masses --      1.1814                 1.1307                 1.3358
 Frc consts  --      1.1984                 1.1476                 1.4472
 IR Inten    --     31.0916                 4.5555                20.4126

                     67                     68                     69
                      A                      A                      A
 Frequencies --   1366.0861              1367.4817              1372.6142
 Red. masses --      1.2884                 1.2154                 1.4511
 Frc consts  --      1.4166                 1.3391                 1.6108
 IR Inten    --     23.3387               343.7287               121.4382

                     70                     71                     72
                      A                      A                      A
 Frequencies --   1381.2305              1401.0651              1407.7338
 Red. masses --      1.3720                 1.2336                 1.2399
 Frc consts  --      1.5421                 1.4267                 1.4477
 IR Inten    --     89.6670                17.8768               309.7888

                     73                     74                     75
                      A                      A                      A
 Frequencies --   1441.2608              1447.7798              1457.3640
 Red. masses --      1.5943                 1.3735                 1.5569
 Frc consts  --      1.9513                 1.6963                 1.9483
 IR Inten    --      5.7586                12.2049                 3.5874

                     76                     77                     78
                      A                      A                      A
 Frequencies --   1473.6835              1475.3386              1479.1205
 Red. masses --      1.7990                 1.0445                 1.3122
 Frc consts  --      2.3019                 1.3395                 1.6914
 IR Inten    --     19.3820                16.0218                82.3106

                     79                     80                     81
                      A                      A                      A
 Frequencies --   1484.9045              1484.9787              1504.9772
 Red. masses --      1.0845                 1.0938                 1.0827
 Frc consts  --      1.4090                 1.4211                 1.4448
 IR Inten    --      6.3753                10.5510                 9.9881

                     82                     83                     84
                      A                      A                      A
 Frequencies --   1517.2310              1636.4974              1676.0894
 Red. masses --      1.0902                 1.0466                 1.0454
 Frc consts  --      1.4786                 1.6514                 1.7303
 IR Inten    --      5.1343               144.7482               117.8688

                     85                     86                     87
                      A                      A                      A
 Frequencies --   2093.6627              2717.9078              3067.0031
 Red. masses --      1.1452                 1.0733                 1.0582
 Frc consts  --      2.9577                 4.6714                 5.8645
 IR Inten    --   4803.5377              1893.7130                38.3889

                     88                     89                     90
                      A                      A                      A
 Frequencies --   3068.1328              3085.4524              3100.5985
 Red. masses --      1.0360                 1.0600                 1.0863
 Frc consts  --      5.7457                 5.9457                 6.1528
 IR Inten    --     11.6950                34.6382                29.0153

                     91                     92                     93
                      A                      A                      A
 Frequencies --   3111.1858              3117.2204              3119.0412
 Red. masses --      1.0889                 1.1080                 1.0595
 Frc consts  --      6.2098                 6.3435                 6.0730
 IR Inten    --     16.1089                33.6434                10.4672

                     94                     95                     96
                      A                      A                      A
 Frequencies --   3131.1735              3137.2220              3150.1431
 Red. masses --      1.1061                 1.0890                 1.1027
 Frc consts  --      6.3895                 6.3150                 6.4470
 IR Inten    --      1.8219                20.1933                22.6101

                     97                     98                     99
                      A                      A                      A
 Frequencies --   3153.2937              3180.6805              3625.9319
 Red. masses --      1.1070                 1.1108                 1.0675
 Frc consts  --      6.4850                 6.6208                 8.2694
 IR Inten    --     43.8303                 7.6214               717.1969

                    100                    101                    102
                      A                      A                      A
 Frequencies --   3631.0651              3724.2948              3822.6449
 Red. masses --      1.0619                 1.0671                 1.0667
 Frc consts  --      8.2493                 8.7208                 9.1839
 IR Inten    --    629.0856               288.4586               186.1407

                    103                    104                    105
                      A                      A                      A
 Frequencies --   3832.6899              3843.2832              3872.8107
 Red. masses --      1.0668                 1.0665                 1.0671
 Frc consts  --      9.2332                 9.2817                 9.4297
 IR Inten    --    197.9401               153.1045               179.3849

 - Thermochemistry -
 -------------------
 Temperature   443.150 Kelvin.  Pressure   1.00000 Atm.
 Atom     1 has atomic number  6 and mass  12.00000

 Molecular mass:   245.12364 amu.
 Principal axes and moments of inertia in atomic units:
                           1         2         3
     Eigenvalues --  1745.014789718.69024**********
           X            1.00000  -0.00161   0.00030
           Y            0.00159   0.99909   0.04263
           Z           -0.00036  -0.04263   0.99909
 This molecule is an asymmetric top.
 Rotational symmetry number  1.
 Warning -- assumption of classical behavior for rotation
           may cause significant error
 Rotational temperatures (Kelvin)      0.04964     0.00891     0.00860
 Rotational constants (GHZ):           1.03423     0.18570     0.17925
 Zero-point vibrational energy     833655.2 (Joules/Mol)
                                  199.24838 (Kcal/Mol)
 Warning -- explicit consideration of  42 degrees of freedom as
           vibrations may cause significant error
 Vibrational temperatures:     24.76    44.98    66.48    78.60    83.51
          (Kelvin)            108.67   121.06   181.40   192.62   204.93
                              233.65   270.71   310.72   355.44   365.00
                              381.02   409.99   431.04   436.17   507.96
                              509.75   523.31   565.43   602.72   618.57
                              632.77   644.84   658.39   684.21   720.00
                              748.51   821.72   875.19   927.03   970.63
                             1065.08  1091.39  1179.30  1251.21  1292.81
                             1307.59  1321.34  1378.70  1440.71  1458.07
                             1490.64  1518.20  1546.76  1549.97  1569.45
                             1596.97  1617.99  1627.92  1647.32  1687.98
                             1696.55  1733.06  1749.51  1778.98  1792.76
                             1813.72  1817.46  1843.24  1887.93  1888.32
                             1951.06  1965.49  1967.50  1974.89  1987.28
                             2015.82  2025.41  2073.65  2083.03  2096.82
                             2120.30  2122.68  2128.12  2136.45  2136.55
                             2165.33  2182.96  2354.55  2411.52  3012.31
                             3910.46  4412.73  4414.36  4439.28  4461.07
                             4476.30  4484.98  4487.60  4505.06  4513.76
                             4532.35  4536.89  4576.29  5216.91  5224.29
                             5358.43  5499.93  5514.39  5529.63  5572.11

 Zero-point correction=                           0.317523 (Hartree/Particle)
 Thermal correction to Energy=                    0.357930
 Thermal correction to Enthalpy=                  0.359334
 Thermal correction to Gibbs Free Energy=         0.228413
 Sum of electronic and zero-point Energies=           -918.769237
 Sum of electronic and thermal Energies=              -918.728829
 Sum of electronic and thermal Enthalpies=            -918.727425
 Sum of electronic and thermal Free Energies=         -918.858346

                     E (Thermal)             CV                S
                      KCal/Mol        Cal/Mol-Kelvin    Cal/Mol-Kelvin
 Total                  224.605            100.272            185.386
 Electronic               0.000              0.000              0.000
 Translational            1.321              2.981             44.359
 Rotational               1.321              2.981             34.682
 Vibrational            221.963             94.311            106.344
 Vibration     1          0.881              1.987              7.720
 Vibration     2          0.881              1.985              6.534
 Vibration     3          0.882              1.983              5.759
 Vibration     4          0.883              1.982              5.427
 Vibration     5          0.883              1.981              5.307
 Vibration     6          0.885              1.977              4.785
 Vibration     7          0.886              1.975              4.572
 Vibration     8          0.893              1.960              3.776
 Vibration     9          0.894              1.956              3.659
 Vibration    10          0.896              1.952              3.537
 Vibration    11          0.901              1.942              3.282
 Vibration    12          0.908              1.927              2.997
 Vibration    13          0.916              1.908              2.733
 Vibration    14          0.927              1.884              2.478
 Vibration    15          0.930              1.879              2.428
 Vibration    16          0.934              1.869              2.347
 Vibration    17          0.943              1.851              2.211
 Vibration    18          0.949              1.838              2.119
 Vibration    19          0.951              1.834              2.097
 Vibration    20          0.975              1.783              1.821
 Vibration    21          0.976              1.782              1.815
 Vibration    22          0.981              1.772              1.768
 Vibration    23          0.997              1.738              1.633
 Vibration    24          1.012              1.707              1.522
 Vibration    25          1.019              1.694              1.478
 Vibration    26          1.025              1.681              1.440
 Vibration    27          1.031              1.671              1.408
 Vibration    28          1.037              1.659              1.374
 Vibration    29          1.049              1.635              1.310
 Vibration    30          1.066              1.602              1.228
 Vibration    31          1.081              1.575              1.166
 Vibration    32          1.120              1.504              1.022
 Vibration    33          1.150              1.450              0.929
 Vibration    34          1.181              1.397              0.847
 Vibration    35          1.207              1.352              0.784
 Vibration    36          1.269              1.254              0.663
 Vibration    37          1.286              1.227              0.633
 Vibration    38          1.348              1.136              0.541
 Vibration    39          1.400              1.064              0.476
 Vibration    40          1.431              1.022              0.442
 Vibration    41          1.443              1.008              0.430
 Vibration    42          1.453              0.994              0.420

 Optimization completed.
    -- Stationary point found.
 Normal termination of Gaussian 16 at Tue Jan 15 10:38:59 2019.
