 Gaussian 16, Revision A.03,
 Gaussian 16:  ES64L-G16RevA.03 25-Dec-2016

 ----------------------------------------------------------------------
 # opt freq m062x/6-311++g(d,p) scf=(xqc,maxconventionalcycles=400) tem
 perature=443.15 scrf=(smd,solvent=water)
 ----------------------------------------------------------------------

 -------------------
 Title Card Required
 -------------------
 Symbolic Z-matrix:
 Charge =  1 Multiplicity = 1

 SCF Done:  E(RM062X) =  -840.472467521     A.U. after   12 cycles
 SCF Done:  E(RM062X) =  -840.483238183     A.U. after   12 cycles
 SCF Done:  E(RM062X) =  -840.490077876     A.U. after   11 cycles
 SCF Done:  E(RM062X) =  -840.492639882     A.U. after   11 cycles
 SCF Done:  E(RM062X) =  -840.493733970     A.U. after   11 cycles
 SCF Done:  E(RM062X) =  -840.492905268     A.U. after   11 cycles
 SCF Done:  E(RM062X) =  -840.493229769     A.U. after   11 cycles
 SCF Done:  E(RM062X) =  -840.494794849     A.U. after    9 cycles
 SCF Done:  E(RM062X) =  -840.494421282     A.U. after   11 cycles
 SCF Done:  E(RM062X) =  -840.495329378     A.U. after   11 cycles
 SCF Done:  E(RM062X) =  -840.497767564     A.U. after    8 cycles
 SCF Done:  E(RM062X) =  -840.497766968     A.U. after    8 cycles
 SCF Done:  E(RM062X) =  -840.497767529     A.U. after    8 cycles
 SCF Done:  E(RM062X) =  -840.497766701     A.U. after    8 cycles
 SCF Done:  E(RM062X) =  -840.497766185     A.U. after    8 cycles
 SCF Done:  E(RM062X) =  -840.497765838     A.U. after    7 cycles
 SCF Done:  E(RM062X) =  -840.497758621     A.U. after    9 cycles
 SCF Done:  E(RM062X) =  -840.497766848     A.U. after    9 cycles
 SCF Done:  E(RM062X) =  -840.497766967     A.U. after    7 cycles
 Optimization completed.
    -- Stationary point found.
 Normal termination of Gaussian 16 at Mon Dec 10 18:07:51 2018.

 ----------------------------------------------------------------------
 #N Geom=AllCheck Guess=TCheck SCRF=Check GenChk RM062X/6-311++G(d,p) F
 req
 ----------------------------------------------------------------------

 Structure from the checkpoint file:  "/scratch/ykim/gaussianScratch.6076995/Gau-14538.chk"
 -------------------
 Title Card Required
 -------------------
 Charge =  1 Multiplicity = 1

                         Standard orientation:
 ---------------------------------------------------------------------
 Center     Atomic      Atomic             Coordinates (Angstroms)
 Number     Number       Type             X           Y           Z
 ---------------------------------------------------------------------
      1          6           0        1.862454    0.318650   -1.028568
      2          6           0        1.941648    1.229703    0.207451
      3          6           0        0.994993    0.558683    1.215113
      4          6           0       -0.070115   -0.018945    0.260430
      5          8           0        0.670163   -0.477452   -0.853779
      6          6           0        3.041995   -0.604723   -1.223111
      7          6           0       -0.861786   -1.186980    0.820288
      8          8           0        3.196155   -1.410402   -0.056679
      9          8           0        1.434594    2.504909   -0.179691
     10          8           0       -0.973711    1.000148   -0.127998
     11          8           0        1.640860   -0.429783    1.985469
     12          8           0       -1.731737   -1.766308   -0.155888
     13          1           0        2.864389   -1.238232   -2.096378
     14          1           0        3.934989    0.000907   -1.397315
     15          1           0        4.065532   -1.825094   -0.067278
     16          1           0        1.754427    0.936746   -1.923324
     17          1           0        2.956091    1.312612    0.602743
     18          1           0        1.474768    3.094026    0.584100
     19          1           0        0.553059    1.283034    1.899102
     20          1           0        2.230060   -0.940372    1.399677
     21          1           0       -0.468134    1.800415   -0.344716
     22          1           0       -1.492408   -0.838011    1.637881
     23          1           0       -0.172146   -1.945250    1.187162
     24          1           0       -1.199697   -2.143989   -0.869401
     25          1           0       -2.706227    0.734092   -0.781635
     26          8           0       -3.335652    0.011321   -0.990331
     27          1           0       -2.813459   -0.810547   -0.686039
     28          1           0       -4.220256    0.123927   -0.445770
     29          8           0       -5.478244    0.227141    0.258589
     30          1           0       -6.171293    0.615507   -0.290693
     31          1           0       -5.424249    0.785311    1.044745
 ---------------------------------------------------------------------

 SCF Done:  E(RM062X) =  -840.497766967     A.U. after    1 cycles

 The electronic state is 1-A.
 Alpha  occ. eigenvalues --  -19.68679 -19.65960 -19.65683 -19.64812 -19.64485
 Alpha  occ. eigenvalues --  -19.64423 -19.64032 -19.63011 -10.65793 -10.60453
 Alpha  occ. eigenvalues --  -10.60182 -10.60178 -10.59789 -10.59012  -1.22846
 Alpha  occ. eigenvalues --   -1.21605  -1.17668  -1.16608  -1.16501  -1.16377
 Alpha  occ. eigenvalues --   -1.15279  -1.14208  -0.89184  -0.87252  -0.81648
 Alpha  occ. eigenvalues --   -0.75184  -0.70874  -0.68350  -0.67914  -0.65782
 Alpha  occ. eigenvalues --   -0.64714  -0.63528  -0.63482  -0.61711  -0.60234
 Alpha  occ. eigenvalues --   -0.58895  -0.55910  -0.54875  -0.53777  -0.52753
 Alpha  occ. eigenvalues --   -0.52075  -0.50798  -0.50504  -0.49332  -0.48804
 Alpha  occ. eigenvalues --   -0.48166  -0.47074  -0.45178  -0.43973  -0.43384
 Alpha  occ. eigenvalues --   -0.42861  -0.42278  -0.40147  -0.39005  -0.38253
 Alpha  occ. eigenvalues --   -0.37164  -0.35911  -0.33606
 Alpha virt. eigenvalues --   -0.00516   0.00475   0.01073   0.01402   0.02057
 Alpha virt. eigenvalues --    0.02798   0.03256   0.03807   0.03936   0.04482
 Alpha virt. eigenvalues --    0.05146   0.05771   0.06489   0.07270   0.08057

 Mulliken charges:
               1
     1  C    0.406024
     2  C   -0.554309
     3  C   -0.399610
     4  C   -0.186581
     5  O   -0.090440
     6  C   -0.589229
     7  C   -0.586093
     8  O   -0.411434
     9  O   -0.319154
    10  O   -0.319033
    11  O   -0.272089
    12  O   -0.356701
    13  H    0.223800
    14  H    0.213845
    15  H    0.373445
    16  H    0.309979
    17  H    0.333506
    18  H    0.329922
    19  H    0.331914
    20  H    0.350783
    21  H    0.384555
    22  H    0.296875
    23  H    0.227934
    24  H    0.368342
    25  H    0.420611
    26  O   -0.639263
    27  H    0.461237
    28  H    0.619010
    29  O   -0.656289
    30  H    0.368092
    31  H    0.360351
 Sum of Mulliken charges =   1.00000

 Dipole moment (field-independent basis, Debye):
    X=             -7.5664    Y=              3.8502    Z=             -1.1378  Tot=              8.5656
 Quadrupole moment (field-independent basis, Debye-Ang):
   XX=              7.1085   YY=            -69.6813   ZZ=            -83.7051
   XY=            -17.0836   XZ=             -7.9847   YZ=              9.3620

  Exact polarizability: 150.868  -4.099 140.543  -2.435  -0.524 138.401
 Approx polarizability: 121.730  -3.608 117.535  -0.941  -0.183 116.480

 ******    1 imaginary frequencies (negative Signs) ******

                      1                      2                      3
                      A                      A                      A
 Frequencies --    -37.4142                18.8455                40.9024
 Red. masses --      2.5505                 4.9708                 5.1833
 Frc consts  --      0.0021                 0.0010                 0.0051
 IR Inten    --     20.9467                13.8220                 8.9058

                      4                      5                      6
                      A                      A                      A
 Frequencies --     64.9562                81.3237               116.1736
 Red. masses --      2.8188                 1.8845                 3.4281
 Frc consts  --      0.0070                 0.0073                 0.0273
 IR Inten    --     45.8709                39.5748                82.5061

                      7                      8                      9
                      A                      A                      A
 Frequencies --    126.7022               142.4570               166.5746
 Red. masses --      5.3870                 3.1839                 1.5181
 Frc consts  --      0.0510                 0.0381                 0.0248
 IR Inten    --      1.0890                41.3753               128.6766

                     10                     11                     12
                      A                      A                      A
 Frequencies --    171.1414               185.7923               243.9672
 Red. masses --      2.8675                 5.2326                 5.7308
 Frc consts  --      0.0495                 0.1064                 0.2010
 IR Inten    --     34.9250                26.5791                39.0560

                     13                     14                     15
                      A                      A                      A
 Frequencies --    262.8163               271.1670               298.2135
 Red. masses --      4.1849                 3.4895                 3.8345
 Frc consts  --      0.1703                 0.1512                 0.2009
 IR Inten    --     54.2841               131.9715                19.8559

                     16                     17                     18
                      A                      A                      A
 Frequencies --    307.7918               313.3661               350.6482
 Red. masses --      3.6083                 3.0026                 1.8497
 Frc consts  --      0.2014                 0.1737                 0.1340
 IR Inten    --      9.5620               130.3029                38.1364

                     19                     20                     21
                      A                      A                      A
 Frequencies --    370.6126               381.4671               394.8682
 Red. masses --      2.1493                 1.3484                 2.0696
 Frc consts  --      0.1739                 0.1156                 0.1901
 IR Inten    --     89.1830               303.1249                63.9717

                     22                     23                     24
                      A                      A                      A
 Frequencies --    426.5077               442.4976               457.3914
 Red. masses --      3.1606                 1.0782                 2.6910
 Frc consts  --      0.3387                 0.1244                 0.3317
 IR Inten    --    114.9770                37.4179                45.0575

                     25                     26                     27
                      A                      A                      A
 Frequencies --    463.8593               493.0249               519.7732
 Red. masses --      1.5056                 1.4268                 1.6823
 Frc consts  --      0.1909                 0.2043                 0.2678
 IR Inten    --    299.0722               139.0704               201.8878

                     28                     29                     30
                      A                      A                      A
 Frequencies --    539.9769               580.8347               609.8186
 Red. masses --      1.5369                 1.1380                 4.5414
 Frc consts  --      0.2640                 0.2262                 0.9950
 IR Inten    --    168.1157                 7.7320                55.1665

                     31                     32                     33
                      A                      A                      A
 Frequencies --    641.5910               648.5309               744.6517
 Red. masses --      1.1505                 3.6640                 5.0967
 Frc consts  --      0.2790                 0.9080                 1.6651
 IR Inten    --    125.3978                56.2897                10.3170

                     34                     35                     36
                      A                      A                      A
 Frequencies --    759.6100               877.7592               912.8812
 Red. masses --      5.7092                 5.1854                 2.3049
 Frc consts  --      1.9409                 2.3539                 1.1317
 IR Inten    --     64.3833                66.7238                32.8803

                     37                     38                     39
                      A                      A                      A
 Frequencies --    924.9242               958.4584              1003.5104
 Red. masses --      2.4452                 1.7897                 1.3134
 Frc consts  --      1.2325                 0.9687                 0.7793
 IR Inten    --     73.7386                 2.3000               249.3762

                     40                     41                     42
                      A                      A                      A
 Frequencies --   1015.2165              1035.1346              1057.1535
 Red. masses --      2.2820                 2.6018                 2.4439
 Frc consts  --      1.3857                 1.6425                 1.6092
 IR Inten    --     36.4112                91.6360                49.6406

                     43                     44                     45
                      A                      A                      A
 Frequencies --   1090.0775              1110.9204              1128.2177
 Red. masses --      4.1038                 2.6421                 2.6854
 Frc consts  --      2.8731                 1.9212                 2.0140
 IR Inten    --    129.9222                67.2441                98.3049

                     46                     47                     48
                      A                      A                      A
 Frequencies --   1140.3703              1153.1198              1204.3962
 Red. masses --      2.5606                 1.7067                 1.1246
 Frc consts  --      1.9619                 1.3371                 0.9612
 IR Inten    --     69.5933               195.8385                 4.5628

                     49                     50                     51
                      A                      A                      A
 Frequencies --   1219.4259              1228.9573              1253.1321
 Red. masses --      1.5002                 2.7113                 1.6965
 Frc consts  --      1.3144                 2.4127                 1.5696
 IR Inten    --     23.5263               354.3612               199.7818

                     52                     53                     54
                      A                      A                      A
 Frequencies --   1254.6872              1277.4642              1291.5540
 Red. masses --      1.4417                 1.2295                 1.5724
 Frc consts  --      1.3372                 1.1822                 1.5454
 IR Inten    --      8.9468               160.8012                70.3595

                     55                     56                     57
                      A                      A                      A
 Frequencies --   1316.1281              1347.6467              1361.3735
 Red. masses --      1.2639                 1.1305                 1.3781
 Frc consts  --      1.2899                 1.2097                 1.5048
 IR Inten    --     10.9622               341.1377               129.2940

                     58                     59                     60
                      A                      A                      A
 Frequencies --   1366.0824              1376.5597              1406.5348
 Red. masses --      1.2892                 1.3266                 1.5106
 Frc consts  --      1.4176                 1.4811                 1.7608
 IR Inten    --     33.3379                60.4797               125.3232

                     61                     62                     63
                      A                      A                      A
 Frequencies --   1410.3197              1439.6730              1456.9125
 Red. masses --      1.6741                 1.6177                 1.5976
 Frc consts  --      1.9619                 1.9755                 1.9979
 IR Inten    --    114.7003                 7.1537                 0.5998

                     64                     65                     66
                      A                      A                      A
 Frequencies --   1474.8336              1482.6882              1489.1973
 Red. masses --      1.9530                 1.0992                 1.3587
 Frc consts  --      2.5029                 1.4237                 1.7754
 IR Inten    --     18.0641                18.1302                96.1024

                     67                     68                     69
                      A                      A                      A
 Frequencies --   1500.1139              1575.7246              1667.5573
 Red. masses --      1.0939                 1.0839                 1.0426
 Frc consts  --      1.4504                 1.5856                 1.7081
 IR Inten    --     15.8766               151.9139                47.3483

                     70                     71                     72
                      A                      A                      A
 Frequencies --   1714.1112              2265.1011              2765.0414
 Red. masses --      1.0536                 1.1270                 1.0718
 Frc consts  --      1.8239                 3.4069                 4.8281
 IR Inten    --    330.3591              4267.8835              1858.2393

                     73                     74                     75
                      A                      A                      A
 Frequencies --   3075.1742              3105.1802              3115.0710
 Red. masses --      1.0587                 1.0862                 1.0881
 Frc consts  --      5.8986                 6.1705                 6.2212
 IR Inten    --     38.5685                31.1922                20.4052

                     76                     77                     78
                      A                      A                      A
 Frequencies --   3122.3234              3127.3054              3142.6111
 Red. masses --      1.0593                 1.1085                 1.0897
 Frc consts  --      6.0845                 6.3876                 6.3407
 IR Inten    --     11.1351                30.0820                20.1352

                     79                     80                     81
                      A                      A                      A
 Frequencies --   3183.8835              3582.5815              3621.3090
 Red. masses --      1.1108                 1.0622                 1.0677
 Frc consts  --      6.6346                 8.0324                 8.2494
 IR Inten    --      8.0703               765.9855               725.6551

                     82                     83                     84
                      A                      A                      A
 Frequencies --   3724.8446              3819.7654              3822.6084
 Red. masses --      1.0671                 1.0459                 1.0667
 Frc consts  --      8.7230                 8.9912                 9.1833
 IR Inten    --    321.7194               104.5532               187.9039

                     85                     86                     87
                      A                      A                      A
 Frequencies --   3842.2468              3872.6008              3895.9481
 Red. masses --      1.0667                 1.0671                 1.0827
 Frc consts  --      9.2781                 9.4291                 9.6828
 IR Inten    --    150.4243               181.8873               275.0029

 - Thermochemistry -
 -------------------
 Temperature   443.150 Kelvin.  Pressure   1.00000 Atm.
 Atom     1 has atomic number  6 and mass  12.00000

 Molecular mass:   217.09234 amu.
 Principal axes and moments of inertia in atomic units:
                           1         2         3
     Eigenvalues --  1637.578515449.267275842.20971
           X            0.99996  -0.00657  -0.00663
           Y            0.00673   0.99966   0.02531
           Z            0.00647  -0.02535   0.99966
 This molecule is an asymmetric top.
 Rotational symmetry number  1.
 Warning -- assumption of classical behavior for rotation
           may cause significant error
 Rotational temperatures (Kelvin)      0.05289     0.01589     0.01483
 Rotational constants (GHZ):           1.10208     0.33119     0.30891
    1 imaginary frequencies ignored.
 Zero-point vibrational energy     683332.5 (Joules/Mol)
                                  163.32038 (Kcal/Mol)
 Warning -- explicit consideration of  35 degrees of freedom as
           vibrations may cause significant error
 Vibrational temperatures:     27.11    58.85    93.46   117.01   167.15
          (Kelvin)            182.30   204.96   239.66   246.23   267.31
                              351.01   378.13   390.15   429.06   442.84
                              450.86   504.50   533.23   548.85   568.13
                              613.65   636.66   658.08   667.39   709.35
                              747.84   776.91   835.69   877.39   923.11
                              933.09  1071.39  1092.91  1262.90  1313.43
                             1330.76  1379.01  1443.83  1460.67  1489.33
                             1521.01  1568.38  1598.37  1623.25  1640.74
                             1659.08  1732.86  1754.48  1768.20  1802.98
                             1805.22  1837.99  1858.26  1893.61  1938.96
                             1958.71  1965.49  1980.56  2023.69  2029.14
                             2071.37  2096.17  2121.96  2133.26  2142.62
                             2158.33  2267.12  2399.24  2466.22  3258.98
                             3978.28  4424.49  4467.66  4481.89  4492.33
                             4499.50  4521.52  4580.90  5154.54  5210.26
                             5359.22  5495.79  5499.88  5528.14  5571.81
                             5605.40

 Zero-point correction=                           0.260268 (Hartree/Particle)
 Thermal correction to Energy=                    0.294647
 Thermal correction to Enthalpy=                  0.296050
 Thermal correction to Gibbs Free Energy=         0.181007
 Sum of electronic and zero-point Energies=           -840.237499
 Sum of electronic and thermal Energies=              -840.203120
 Sum of electronic and thermal Enthalpies=            -840.201717
 Sum of electronic and thermal Free Energies=         -840.316760

                     E (Thermal)             CV                S
                      KCal/Mol        Cal/Mol-Kelvin    Cal/Mol-Kelvin
 Total                  184.894             85.053            162.903
 Electronic               0.000              0.000              0.000
 Translational            1.321              2.981             43.997
 Rotational               1.321              2.981             33.503
 Vibrational            182.252             79.091             85.403
 Vibration     1          0.881              1.987              7.539
 Vibration     2          0.882              1.984              6.001
 Vibration     3          0.884              1.980              5.084
 Vibration     4          0.886              1.976              4.639
 Vibration     5          0.891              1.964              3.937
 Vibration     6          0.893              1.959              3.766
 Vibration     7          0.896              1.952              3.537
 Vibration     8          0.902              1.939              3.233
 Vibration     9          0.903              1.937              3.180
 Vibration    10          0.907              1.928              3.022
 Vibration    11          0.926              1.886              2.502
 Vibration    12          0.933              1.871              2.362
 Vibration    13          0.937              1.864              2.303
 Vibration    14          0.948              1.839              2.127
 Vibration    15          0.953              1.830              2.069
 Vibration    16          0.955              1.824              2.036
 Vibration    17          0.974              1.786              1.833
 Vibration    18          0.984              1.764              1.735
 Vibration    19          0.990              1.752              1.684
 Vibration    20          0.998              1.736              1.624
 Vibration    21          1.017              1.698              1.492
 Vibration    22          1.027              1.678              1.430
 Vibration    23          1.037              1.659              1.374
 Vibration    24          1.041              1.651              1.351
 Vibration    25          1.061              1.612              1.252
 Vibration    26          1.080              1.576              1.168
 Vibration    27          1.095              1.548              1.108
 Vibration    28          1.127              1.490              0.997
 Vibration    29          1.151              1.448              0.926
 Vibration    30          1.178              1.401              0.853
 Vibration    31          1.184              1.391              0.838
 Vibration    32          1.273              1.248              0.656
 Vibration    33          1.287              1.225              0.631
 Vibration    34          1.409              1.052              0.466
 Vibration    35          1.447              1.002              0.426

                           ! Non-Optimized Parameters !
 Normal termination of Gaussian 16 at Mon Dec 10 18:25:28 2018.
