 Gaussian 16, Revision A.03,
 Gaussian 16:  ES64L-G16RevA.03 25-Dec-2016

 ----------------------------------------------------------------------
 # opt freq m062x/6-311++g(d,p) scf=(xqc,maxconventionalcycles=400) tem
 perature=443.15 scrf=(smd,solvent=n,n-dimethylacetamide)
 ----------------------------------------------------------------------

 -------------------
 Title Card Required
 -------------------
 Symbolic Z-matrix:
 Charge =  1 Multiplicity = 1

 SCF Done:  E(RM062X) =  -1051.80553860     A.U. after   14 cycles
 SCF Done:  E(RM062X) =  -1051.81081128     A.U. after   12 cycles
 SCF Done:  E(RM062X) =  -1051.80809438     A.U. after   14 cycles
 SCF Done:  E(RM062X) =  -1051.81025491     A.U. after   13 cycles
 SCF Done:  E(RM062X) =  -1051.81128523     A.U. after   11 cycles
 SCF Done:  E(RM062X) =  -1051.81503076     A.U. after   13 cycles
 SCF Done:  E(RM062X) =  -1051.66559581     A.U. after   15 cycles
 SCF Done:  E(RM062X) =  -1051.80805700     A.U. after   13 cycles
 SCF Done:  E(RM062X) =  -1051.81607327     A.U. after    9 cycles
 SCF Done:  E(RM062X) =  -1051.82457122     A.U. after   13 cycles
 SCF Done:  E(RM062X) =  -1051.85823982     A.U. after   10 cycles
 SCF Done:  E(RM062X) =  -1051.85831242     A.U. after   10 cycles
 SCF Done:  E(RM062X) =  -1051.85831641     A.U. after    8 cycles
 SCF Done:  E(RM062X) =  -1051.85831660     A.U. after    8 cycles
 SCF Done:  E(RM062X) =  -1051.85831713     A.U. after    7 cycles
 SCF Done:  E(RM062X) =  -1051.85831785     A.U. after    8 cycles
 SCF Done:  E(RM062X) =  -1051.85831796     A.U. after    7 cycles
 SCF Done:  E(RM062X) =  -1051.85831814     A.U. after    8 cycles
 SCF Done:  E(RM062X) =  -1051.85831821     A.U. after    7 cycles
 Optimization completed.
    -- Stationary point found.
 Normal termination of Gaussian 16 at Thu Dec 13 02:33:32 2018.

 ----------------------------------------------------------------------
 #N Geom=AllCheck Guess=TCheck SCRF=Check GenChk RM062X/6-311++G(d,p) F
 req
 ----------------------------------------------------------------------

 Structure from the checkpoint file:  "/scratch/ykim/gaussianScratch.6086214/Gau-17679.chk"
 -------------------
 Title Card Required
 -------------------
 Charge =  1 Multiplicity = 1

                         Standard orientation:
 ---------------------------------------------------------------------
 Center     Atomic      Atomic             Coordinates (Angstroms)
 Number     Number       Type             X           Y           Z
 ---------------------------------------------------------------------
      1          6           0        3.696566    0.910008   -0.641432
      2          6           0        3.703147    1.045890    0.893182
      3          6           0        2.884151   -0.170749    1.362649
      4          6           0        1.872144   -0.278973    0.202363
      5          8           0        2.650403   -0.029515   -0.947285
      6          6           0        4.992606    0.421034   -1.243819
      7          6           0        1.214801   -1.634199    0.019815
      8          8           0        5.358506   -0.802169   -0.609504
      9          8           0        3.023021    2.262387    1.204786
     10          8           0        0.856757    0.699652    0.346669
     11          8           0        3.669515   -1.322278    1.510053
     12          8           0        0.507330   -1.703854   -1.215361
     13          1           0        4.856105    0.266833   -2.317994
     14          1           0        5.759736    1.185330   -1.087645
     15          1           0        6.237869   -1.067158   -0.899717
     16          1           0        3.455374    1.880721   -1.083940
     17          1           0        4.712195    1.041715    1.310893
     18          1           0        3.097063    2.422160    2.154346
     19          1           0        2.379091    0.018850    2.311022
     20          1           0        4.312757   -1.351347    0.781298
     21          1           0        1.268718    1.537846    0.608900
     22          1           0        0.490291   -1.801916    0.817651
     23          1           0        1.980346   -2.409537    0.062232
     24          1           0        1.132866   -1.500046   -1.922804
     25          1           0       -0.880769    0.525416   -0.310851
     26          8           0       -1.547470    0.035879   -0.824614
     27          1           0       -1.019150   -0.715739   -1.156198
     28          1           0       -2.855776   -0.251187   -0.231705
     29          8           0       -3.765008   -0.498990    0.188834
     30          6           0       -4.756663    0.232376   -0.206769
     31          6           0       -4.536085    1.369744   -1.147986
     32          1           0       -4.703658    2.313283   -0.623206
     33          1           0       -3.515541    1.346626   -1.523086
     34          1           0       -5.232385    1.310383   -1.984682
     35          7           0       -5.936485   -0.067708    0.258833
     36          6           0       -6.114421   -1.209545    1.160824
     37          1           0       -5.881117   -0.912204    2.184988
     38          1           0       -7.154782   -1.522221    1.099977
     39          1           0       -5.466869   -2.029202    0.859785
     40          6           0       -7.140175    0.709486   -0.033418
     41          1           0       -7.641432    0.923208    0.910979
     42          1           0       -6.894214    1.644862   -0.525423
     43          1           0       -7.802182    0.117959   -0.667738
 ---------------------------------------------------------------------

 SCF Done:  E(RM062X) =  -1051.85831821     A.U. after    1 cycles

 The electronic state is 1-A.
 Alpha  occ. eigenvalues --  -19.67571 -19.64990 -19.64567 -19.64530 -19.64396
 Alpha  occ. eigenvalues --  -19.64374 -19.63988 -19.62408 -14.82620 -10.69487
 Alpha  occ. eigenvalues --  -10.65484 -10.60720 -10.60323 -10.60089 -10.59328
 Alpha  occ. eigenvalues --  -10.59295 -10.57778 -10.57487 -10.55436  -1.24170
 Alpha  occ. eigenvalues --   -1.22657  -1.17440  -1.16858  -1.16300  -1.15350
 Alpha  occ. eigenvalues --   -1.15155  -1.14064  -1.09778  -0.89278  -0.88276
 Alpha  occ. eigenvalues --   -0.87015  -0.83846  -0.81495  -0.80409  -0.75132
 Alpha  occ. eigenvalues --   -0.70766  -0.70336  -0.67727  -0.64869  -0.64081
 Alpha  occ. eigenvalues --   -0.63033  -0.62323  -0.61023  -0.60846  -0.60371
 Alpha  occ. eigenvalues --   -0.59044  -0.58978  -0.56768  -0.55225  -0.54294
 Alpha  occ. eigenvalues --   -0.53523  -0.52445  -0.51463  -0.51290  -0.50250
 Alpha  occ. eigenvalues --   -0.50128  -0.48844  -0.48698  -0.48504  -0.48330
 Alpha  occ. eigenvalues --   -0.47923  -0.47120  -0.46424  -0.45911  -0.45001
 Alpha  occ. eigenvalues --   -0.43938  -0.43094  -0.42519  -0.42269  -0.41687
 Alpha  occ. eigenvalues --   -0.39963  -0.38631  -0.37538  -0.37142  -0.35851
 Alpha  occ. eigenvalues --   -0.35344  -0.33147
 Alpha virt. eigenvalues --   -0.00900  -0.00071   0.00433   0.00759   0.00943
 Alpha virt. eigenvalues --    0.01311   0.01724   0.01857   0.02406   0.02792
 Alpha virt. eigenvalues --    0.03104   0.03318   0.03551   0.04187   0.04548

 Mulliken charges:
               1
     1  C    0.250951
     2  C   -0.540424
     3  C   -0.514882
     4  C   -0.059321
     5  O   -0.024461
     6  C   -0.535903
     7  C   -0.644992
     8  O   -0.381873
     9  O   -0.285095
    10  O   -0.294950
    11  O   -0.189564
    12  O   -0.306594
    13  H    0.224238
    14  H    0.215029
    15  H    0.358485
    16  H    0.299707
    17  H    0.329750
    18  H    0.311521
    19  H    0.321526
    20  H    0.325727
    21  H    0.358691
    22  H    0.280560
    23  H    0.214633
    24  H    0.319773
    25  H    0.359775
    26  O   -0.687843
    27  H    0.351055
    28  H    0.591630
    29  O   -0.411164
    30  C    0.245852
    31  C   -0.742277
    32  H    0.256502
    33  H    0.214316
    34  H    0.239043
    35  N    0.118508
    36  C   -0.420980
    37  H    0.252852
    38  H    0.216877
    39  H    0.203568
    40  C   -0.475168
    41  H    0.214391
    42  H    0.196356
    43  H    0.244173
 Sum of Mulliken charges =   1.00000

 Dipole moment (field-independent basis, Debye):
    X=            -10.9661    Y=              4.4220    Z=             -0.4702  Tot=             11.8335
 Quadrupole moment (field-independent basis, Debye-Ang):
   XX=             59.7873   YY=           -108.2154   ZZ=           -102.8078
   XY=              0.1031   XZ=             -8.5904   YZ=              4.4018

  Exact polarizability: 228.299   3.393 189.123 -11.600  -8.026 186.545
 Approx polarizability: 191.964  -1.983 170.850  -6.428  -4.195 168.571

                      1                      2                      3
                      A                      A                      A
 Frequencies --     13.8454                20.7947                32.1057
 Red. masses --      4.1850                 5.0128                 4.9680
 Frc consts  --      0.0005                 0.0013                 0.0030
 IR Inten    --      4.1702                 3.3898                 2.1364

                      4                      5                      6
                      A                      A                      A
 Frequencies --     32.5505                52.5763                64.1595
 Red. masses --      3.6041                 2.7246                 3.8593
 Frc consts  --      0.0022                 0.0044                 0.0094
 IR Inten    --      1.5986                 0.2377                 9.3000

                      7                      8                      9
                      A                      A                      A
 Frequencies --     80.1101                89.6775               123.0661
 Red. masses --      1.6179                 5.0311                 2.5751
 Frc consts  --      0.0061                 0.0238                 0.0230
 IR Inten    --      5.3101                 3.7951                92.8102

                     10                     11                     12
                      A                      A                      A
 Frequencies --    129.7670               133.6751               147.4918
 Red. masses --      3.2075                 1.2338                 2.8000
 Frc consts  --      0.0318                 0.0130                 0.0359
 IR Inten    --     22.0542                 2.3932                61.8416

                     13                     14                     15
                      A                      A                      A
 Frequencies --    157.8114               162.1323               168.0884
 Red. masses --      2.6631                 2.3294                 2.2253
 Frc consts  --      0.0391                 0.0361                 0.0370
 IR Inten    --     14.9793                17.9581                71.5074

                     16                     17                     18
                      A                      A                      A
 Frequencies --    185.9416               187.9842               209.2339
 Red. masses --      1.3309                 5.0846                 4.1620
 Frc consts  --      0.0271                 0.1059                 0.1074
 IR Inten    --      4.7611                 4.5116                23.1189

                     19                     20                     21
                      A                      A                      A
 Frequencies --    254.2265               271.1937               294.4327
 Red. masses --      5.8380                 3.8891                 3.0020
 Frc consts  --      0.2223                 0.1685                 0.1533
 IR Inten    --      2.5350                 5.6961                17.2723

                     22                     23                     24
                      A                      A                      A
 Frequencies --    296.5814               298.9284               325.1872
 Red. masses --      3.4298                 3.4270                 2.8152
 Frc consts  --      0.1777                 0.1804                 0.1754
 IR Inten    --      7.6788                19.4818                10.9648

                     25                     26                     27
                      A                      A                      A
 Frequencies --    352.5338               361.4871               369.4116
 Red. masses --      1.7208                 2.2016                 1.5363
 Frc consts  --      0.1260                 0.1695                 0.1235
 IR Inten    --     42.8222                79.6178               106.6781

                     28                     29                     30
                      A                      A                      A
 Frequencies --    386.2811               417.2328               432.2416
 Red. masses --      2.9634                 2.0683                 1.2398
 Frc consts  --      0.2605                 0.2121                 0.1365
 IR Inten    --     29.3102               112.2354                 6.3600

                     31                     32                     33
                      A                      A                      A
 Frequencies --    439.9791               444.6613               466.1129
 Red. masses --      2.6400                 2.6457                 4.7652
 Frc consts  --      0.3011                 0.3082                 0.6100
 IR Inten    --     26.0585                 8.4159                 8.4720

                     34                     35                     36
                      A                      A                      A
 Frequencies --    497.4352               512.8977               564.5646
 Red. masses --      3.0162                 3.6545                 1.1090
 Frc consts  --      0.4397                 0.5664                 0.2083
 IR Inten    --     11.0109                 7.1572                47.4740

                     37                     38                     39
                      A                      A                      A
 Frequencies --    568.4731               584.2446               600.1320
 Red. masses --      1.1418                 1.1185                 4.1823
 Frc consts  --      0.2174                 0.2249                 0.8875
 IR Inten    --    151.1771               166.3197                15.5466

                     40                     41                     42
                      A                      A                      A
 Frequencies --    610.2589               615.2341               642.7764
 Red. masses --      5.0015                 2.8372                 3.9737
 Frc consts  --      1.0974                 0.6327                 0.9673
 IR Inten    --     26.6675                16.0031                59.3519

                     43                     44                     45
                      A                      A                      A
 Frequencies --    736.6375               753.2610               768.9677
 Red. masses --      4.5616                 5.7273                 3.8942
 Frc consts  --      1.4584                 1.9147                 1.3567
 IR Inten    --     10.4392                44.8726                 3.9619

                     46                     47                     48
                      A                      A                      A
 Frequencies --    794.0827               865.1899               904.4632
 Red. masses --      1.1289                 5.2049                 2.4373
 Frc consts  --      0.4194                 2.2955                 1.1747
 IR Inten    --    239.5964                87.6189                51.6756

                     49                     50                     51
                      A                      A                      A
 Frequencies --    917.7378               957.9075               988.3402
 Red. masses --      2.9032                 2.3259                 2.3074
 Frc consts  --      1.4407                 1.2575                 1.3280
 IR Inten    --     83.2975                96.9519                 3.5740

                     52                     53                     54
                      A                      A                      A
 Frequencies --   1012.3416              1037.1008              1051.4793
 Red. masses --      2.3723                 2.6044                 2.3892
 Frc consts  --      1.4324                 1.6505                 1.5563
 IR Inten    --     26.1796                81.3089                88.4391

                     55                     56                     57
                      A                      A                      A
 Frequencies --   1063.7195              1067.2029              1095.1919
 Red. masses --      1.6852                 1.4714                 1.4426
 Frc consts  --      1.1234                 0.9873                 1.0195
 IR Inten    --     13.8099                31.1862                21.8535

                     58                     59                     60
                      A                      A                      A
 Frequencies --   1096.4986              1102.8972              1105.7674
 Red. masses --      5.2536                 4.2103                 3.1386
 Frc consts  --      3.7215                 3.0174                 2.2610
 IR Inten    --     80.8199               303.8800               117.4798

                     61                     62                     63
                      A                      A                      A
 Frequencies --   1120.0194              1125.0517              1134.7416
 Red. masses --      1.2319                 2.7020                 2.8688
 Frc consts  --      0.9105                 2.0150                 2.1764
 IR Inten    --      5.7458                31.2550                85.5912

                     64                     65                     66
                      A                      A                      A
 Frequencies --   1155.1834              1174.9368              1198.6524
 Red. masses --      1.7739                 1.4185                 2.6561
 Frc consts  --      1.3947                 1.1537                 2.2484
 IR Inten    --     55.5353                 1.7953                82.2477

                     67                     68                     69
                      A                      A                      A
 Frequencies --   1202.7809              1216.4850              1229.6957
 Red. masses --      1.3083                 1.3183                 1.3320
 Frc consts  --      1.1152                 1.1494                 1.1867
 IR Inten    --     32.7805               166.6581               103.0946

                     70                     71                     72
                      A                      A                      A
 Frequencies --   1232.1067              1246.5513              1264.2934
 Red. masses --      1.2936                 1.3812                 1.3517
 Frc consts  --      1.1570                 1.2646                 1.2730
 IR Inten    --    118.6111               105.0823                10.0843

                     73                     74                     75
                      A                      A                      A
 Frequencies --   1281.3619              1294.7229              1318.6066
 Red. masses --      1.1917                 4.0457                 1.2110
 Frc consts  --      1.1528                 3.9958                 1.2405
 IR Inten    --     43.2377                24.5985                15.7833

                     76                     77                     78
                      A                      A                      A
 Frequencies --   1355.0089              1364.9015              1374.6033
 Red. masses --      1.4065                 1.4272                 1.2728
 Frc consts  --      1.5215                 1.5665                 1.4170
 IR Inten    --      8.9032                29.1253                 7.7486

                     79                     80                     81
                      A                      A                      A
 Frequencies --   1382.2781              1399.8114              1414.0965
 Red. masses --      1.3459                 1.2424                 1.2782
 Frc consts  --      1.5152                 1.4343                 1.5059
 IR Inten    --     27.7195                30.7121                67.2737

                     82                     83                     84
                      A                      A                      A
 Frequencies --   1421.7007              1444.8650              1444.9855
 Red. masses --      1.2000                 1.3223                 1.4769
 Frc consts  --      1.4290                 1.6264                 1.8169
 IR Inten    --    190.3149               269.5811                85.4429

                     85                     86                     87
                      A                      A                      A
 Frequencies --   1455.5642              1459.4555              1465.7127
 Red. masses --      1.1353                 1.6109                 1.0921
 Frc consts  --      1.4172                 2.0216                 1.3824
 IR Inten    --     60.6038                 0.8341                25.6110

                     88                     89                     90
                      A                      A                      A
 Frequencies --   1477.7746              1483.5998              1484.0348
 Red. masses --      1.1361                 1.6029                 1.1441
 Frc consts  --      1.4618                 2.0788                 1.4846
 IR Inten    --    154.7045                14.3103                56.2737

                     91                     92                     93
                      A                      A                      A
 Frequencies --   1489.7212              1491.3044              1492.1929
 Red. masses --      1.0627                 1.1988                 1.0645
 Frc consts  --      1.3896                 1.5708                 1.3965
 IR Inten    --     40.6015                87.5760                61.5767

                     94                     95                     96
                      A                      A                      A
 Frequencies --   1503.7921              1504.3671              1508.3999
 Red. masses --      1.1769                 1.0913                 1.0839
 Frc consts  --      1.5681                 1.4551                 1.4530
 IR Inten    --    231.7163                30.3478                13.2615

                     97                     98                     99
                      A                      A                      A
 Frequencies --   1544.7828              1684.0172              1745.8812
 Red. masses --      2.6465                 1.1156                 4.0431
 Frc consts  --      3.7210                 1.8640                 7.2609
 IR Inten    --    238.6689               190.6921               667.6686

                    100                    101                    102
                      A                      A                      A
 Frequencies --   2506.5849              3067.7810              3087.0705
 Red. masses --      1.1032                 1.0580                 1.0376
 Frc consts  --      4.0840                 5.8667                 5.8261
 IR Inten    --   4994.2842                33.1493                 9.9851

                    103                    104                    105
                      A                      A                      A
 Frequencies --   3087.9497              3091.1243              3096.2882
 Red. masses --      1.0370                 1.0374                 1.0858
 Frc consts  --      5.8259                 5.8401                 6.1331
 IR Inten    --      5.3249                 9.8167                26.7695

                    106                    107                    108
                      A                      A                      A
 Frequencies --   3109.3663              3113.4877              3118.6580
 Red. masses --      1.0591                 1.0894                 1.1079
 Frc consts  --      6.0332                 6.2219                 6.3490
 IR Inten    --     15.3165                11.0325                27.9449

                    109                    110                    111
                      A                      A                      A
 Frequencies --   3132.2741              3160.7413              3163.5575
 Red. masses --      1.0883                 1.1042                 1.1021
 Frc consts  --      6.2912                 6.4993                 6.4986
 IR Inten    --     18.3704                 2.7299                 5.3386

                    112                    113                    114
                      A                      A                      A
 Frequencies --   3165.7264              3172.4040              3197.3779
 Red. masses --      1.1098                 1.1022                 1.1042
 Frc consts  --      6.5529                 6.5354                 6.6508
 IR Inten    --      9.0644                 4.0370                 3.3697

                    115                    116                    117
                      A                      A                      A
 Frequencies --   3201.5732              3222.1804              3622.0378
 Red. masses --      1.1068                 1.1019                 1.0651
 Frc consts  --      6.6844                 6.7404                 8.2327
 IR Inten    --      0.8357                 1.0219               652.7451

                    118                    119                    120
                      A                      A                      A
 Frequencies --   3675.5778              3694.9114              3740.5647
 Red. masses --      1.0670                 1.0629                 1.0659
 Frc consts  --      8.4933                 8.5501                 8.7872
 IR Inten    --    599.7250               745.6212               178.0868

                    121                    122                    123
                      A                      A                      A
 Frequencies --   3816.9147              3818.0856              3851.9113
 Red. masses --      1.0666                 1.0660                 1.0669
 Frc consts  --      9.1551                 9.1558                 9.3271
 IR Inten    --    168.1384               112.9894               167.6399

 - Thermochemistry -
 -------------------
 Temperature   443.150 Kelvin.  Pressure   1.00000 Atm.
 Atom     1 has atomic number  6 and mass  12.00000

 Molecular mass:   286.15019 amu.
 Principal axes and moments of inertia in atomic units:
                           1         2         3
     Eigenvalues --  2077.87224********************
           X            1.00000  -0.00118  -0.00191
           Y            0.00104   0.99749  -0.07080
           Z            0.00199   0.07080   0.99749
 This molecule is an asymmetric top.
 Rotational symmetry number  1.
 Warning -- assumption of classical behavior for rotation
           may cause significant error
 Rotational temperatures (Kelvin)      0.04168     0.00500     0.00491
 Rotational constants (GHZ):           0.86855     0.10421     0.10240
 Zero-point vibrational energy     971478.3 (Joules/Mol)
                                  232.18890 (Kcal/Mol)
 Warning -- explicit consideration of  49 degrees of freedom as
           vibrations may cause significant error
 Vibrational temperatures:     19.92    29.92    46.19    46.83    75.65
          (Kelvin)             92.31   115.26   129.03   177.06   186.71
                              192.33   212.21   227.06   233.27   241.84
                              267.53   270.47   301.04   365.78   390.19
                              423.62   426.71   430.09   467.87   507.22
                              520.10   531.50   555.77   600.30   621.90
                              633.03   639.77   670.63   715.70   737.95
                              812.28   817.91   840.60   863.46   878.03
                              885.18   924.81  1059.86  1083.77  1106.37
                             1142.51  1244.82  1301.32  1320.42  1378.22
                             1422.00  1456.53  1492.16  1512.84  1530.46
                             1535.47  1575.74  1577.62  1586.82  1590.95
                             1611.46  1618.70  1632.64  1662.05  1690.47
                             1724.59  1730.53  1750.25  1769.26  1772.73
                             1793.51  1819.04  1843.59  1862.82  1897.18
                             1949.56  1963.79  1977.75  1988.79  2014.02
                             2034.57  2045.51  2078.84  2079.01  2094.23
                             2099.83  2108.83  2126.19  2134.57  2135.20
                             2143.38  2145.65  2146.93  2163.62  2164.45
                             2170.25  2222.60  2422.93  2511.93  3606.42
                             4413.85  4441.61  4442.87  4447.44  4454.87
                             4473.68  4479.61  4487.05  4506.64  4547.60
                             4551.65  4554.77  4564.38  4600.31  4606.35
                             4636.00  5211.30  5288.34  5316.15  5381.84
                             5491.69  5493.37  5542.04

 Zero-point correction=                           0.370017 (Hartree/Particle)
 Thermal correction to Energy=                    0.417606
 Thermal correction to Enthalpy=                  0.419010
 Thermal correction to Gibbs Free Energy=         0.269857
 Sum of electronic and zero-point Energies=          -1051.488302
 Sum of electronic and thermal Energies=             -1051.440712
 Sum of electronic and thermal Enthalpies=           -1051.439309
 Sum of electronic and thermal Free Energies=        -1051.588461

                     E (Thermal)             CV                S
                      KCal/Mol        Cal/Mol-Kelvin    Cal/Mol-Kelvin
 Total                  262.052            117.095            211.203
 Electronic               0.000              0.000              0.000
 Translational            1.321              2.981             44.821
 Rotational               1.321              2.981             35.986
 Vibrational            259.410            111.134            130.396
 Vibration     1          0.881              1.987              8.152
 Vibration     2          0.881              1.986              7.344
 Vibration     3          0.881              1.985              6.481
 Vibration     4          0.881              1.985              6.454
 Vibration     5          0.883              1.982              5.503
 Vibration     6          0.884              1.980              5.108
 Vibration     7          0.886              1.976              4.669
 Vibration     8          0.887              1.973              4.446
 Vibration     9          0.892              1.961              3.823
 Vibration    10          0.894              1.958              3.720
 Vibration    11          0.894              1.956              3.661
 Vibration    12          0.897              1.950              3.469
 Vibration    13          0.900              1.944              3.338
 Vibration    14          0.901              1.942              3.285
 Vibration    15          0.902              1.939              3.215
 Vibration    16          0.907              1.928              3.020
 Vibration    17          0.908              1.927              2.999
 Vibration    18          0.914              1.913              2.793
 Vibration    19          0.930              1.878              2.424
 Vibration    20          0.937              1.864              2.303
 Vibration    21          0.947              1.843              2.151
 Vibration    22          0.948              1.841              2.137
 Vibration    23          0.949              1.838              2.123
 Vibration    24          0.961              1.812              1.969
 Vibration    25          0.975              1.784              1.824
 Vibration    26          0.979              1.774              1.779
 Vibration    27          0.984              1.765              1.741
 Vibration    28          0.993              1.746              1.663
 Vibration    29          1.011              1.709              1.529
 Vibration    30          1.021              1.691              1.469
 Vibration    31          1.026              1.681              1.439
 Vibration    32          1.029              1.675              1.422
 Vibration    33          1.043              1.648              1.343
 Vibration    34          1.064              1.606              1.237
 Vibration    35          1.075              1.585              1.189
 Vibration    36          1.114              1.513              1.040
 Vibration    37          1.117              1.508              1.029
 Vibration    38          1.130              1.485              0.988
 Vibration    39          1.143              1.462              0.949
 Vibration    40          1.151              1.447              0.925
 Vibration    41          1.156              1.440              0.913
 Vibration    42          1.179              1.400              0.851
 Vibration    43          1.265              1.260              0.669
 Vibration    44          1.281              1.235              0.641
 Vibration    45          1.297              1.212              0.616
 Vibration    46          1.322              1.174              0.578
 Vibration    47          1.395              1.070              0.481
 Vibration    48          1.438              1.014              0.435
 Vibration    49          1.452              0.995              0.421

                           ! Non-Optimized Parameters !
 Normal termination of Gaussian 16 at Thu Dec 13 03:17:53 2018.
