 Gaussian 16, Revision B.01,
 Gaussian 16:  ES64L-G16RevB.01 20-Dec-2017

 ----------------------------------------------------------------------
 # opt freq m062x/6-311++g(d,p) scrf=(solvent=1,4-dioxane,smd) scf=(xqc
 ,maxconventionalcycles=400) temperature=443.15
 ----------------------------------------------------------------------

 -------------------
 Title Card Required
 -------------------
 Symbolic Z-matrix:
 Charge =  1 Multiplicity = 1

 SCF Done:  E(RM062X) =  -1071.62012180     A.U. after   13 cycles
 SCF Done:  E(RM062X) =  -1071.59872351     A.U. after   13 cycles
 SCF Done:  E(RM062X) =  -1071.62330531     A.U. after   12 cycles
 SCF Done:  E(RM062X) =  -1071.62335672     A.U. after   13 cycles
 SCF Done:  E(RM062X) =  -1071.62463320     A.U. after   11 cycles
 SCF Done:  E(RM062X) =  -1071.62575488     A.U. after   11 cycles
 SCF Done:  E(RM062X) =  -1071.62633314     A.U. after   12 cycles
 SCF Done:  E(RM062X) =  -1071.62557861     A.U. after   12 cycles
 SCF Done:  E(RM062X) =  -1071.62726406     A.U. after   11 cycles
 SCF Done:  E(RM062X) =  -1071.62620454     A.U. after   14 cycles
 SCF Done:  E(RM062X) =  -1071.62999771     A.U. after    9 cycles
 SCF Done:  E(RM062X) =  -1071.63000122     A.U. after   10 cycles
 SCF Done:  E(RM062X) =  -1071.63000509     A.U. after    9 cycles
 SCF Done:  E(RM062X) =  -1071.63000404     A.U. after    8 cycles
 SCF Done:  E(RM062X) =  -1071.63000443     A.U. after    8 cycles
 SCF Done:  E(RM062X) =  -1071.63000538     A.U. after    8 cycles
 SCF Done:  E(RM062X) =  -1071.63000514     A.U. after    8 cycles
 SCF Done:  E(RM062X) =  -1071.63000564     A.U. after    8 cycles
 SCF Done:  E(RM062X) =  -1071.63000571     A.U. after    7 cycles
 Optimization completed.
    -- Stationary point found.
 Normal termination of Gaussian 16 at Sun Jan 13 03:52:32 2019.

 ----------------------------------------------------------------------
 #N Geom=AllCheck Guess=TCheck SCRF=Check GenChk RM062X/6-311++G(d,p) F
 req
 ----------------------------------------------------------------------

 Structure from the checkpoint file:  "/scratch/ykim/gaussianScratch.542968/Gau-438353.chk"
 -------------------
 Title Card Required
 -------------------
 Charge =  1 Multiplicity = 1

                         Standard orientation:
 ---------------------------------------------------------------------
 Center     Atomic      Atomic             Coordinates (Angstroms)
 Number     Number       Type             X           Y           Z
 ---------------------------------------------------------------------
      1          6           0        1.869892    1.317831    0.460538
      2          6           0        3.081884    0.694591    1.189880
      3          6           0        3.320319   -0.619356    0.415817
      4          6           0        1.879045   -0.962336   -0.005234
      5          8           0        1.281660    0.250285   -0.321450
      6          6           0        2.201609    2.467405   -0.463311
      7          6           0        1.732257   -1.900816   -1.195100
      8          8           0        3.213028    2.039639   -1.366870
      9          8           0        2.838337    0.495519    2.562391
     10          8           0        1.166132   -1.467582    1.153082
     11          8           0        4.160637   -0.469562   -0.689488
     12          8           0        0.404892   -1.844670   -1.737995
     13          1           0        1.303921    2.769992   -1.011817
     14          1           0        2.547510    3.308728    0.145078
     15          1           0        3.561777    2.791906   -1.854453
     16          1           0        1.137407    1.659643    1.196294
     17          1           0        3.965890    1.329146    1.120197
     18          1           0        2.041503   -0.037823    2.657834
     19          1           0        3.749086   -1.383487    1.067344
     20          1           0        3.983795    0.392099   -1.102243
     21          1           0       -0.572956   -1.697022    0.846569
     22          1           0        1.909479   -2.934019   -0.892804
     23          1           0        2.454836   -1.631110   -1.963459
     24          1           0        0.329413   -1.026597   -2.245633
     25          1           0        1.625177   -2.245717    1.499418
     26          8           0       -1.255274   -1.943862    0.180913
     27          1           0       -0.715676   -1.947588   -0.683790
     28          1           0       -2.103916   -1.269093    0.171500
     29          6           0       -3.075779    0.699999   -0.714214
     30          6           0       -4.050030    1.760097   -0.242985
     31          6           0       -5.419446    0.138085    0.719057
     32          6           0       -4.483795   -0.966451    0.275057
     33          1           0       -3.745402    2.137491    0.742142
     34          1           0       -4.067853    2.589184   -0.950914
     35          1           0       -3.333276    0.358643   -1.722444
     36          1           0       -2.044172    1.054879   -0.689998
     37          1           0       -5.153336    0.467204    1.732171
     38          1           0       -6.447179   -0.225164    0.722319
     39          1           0       -4.445515   -1.779157    0.999963
     40          1           0       -4.768295   -1.353897   -0.708250
     41          8           0       -3.144508   -0.427699    0.184711
     42          8           0       -5.358398    1.230114   -0.179301
 ---------------------------------------------------------------------

 SCF Done:  E(RM062X) =  -1071.63000571     A.U. after    1 cycles

 The electronic state is 1-A.
 Alpha  occ. eigenvalues --  -19.75455 -19.74094 -19.72988 -19.72711 -19.71266
 Alpha  occ. eigenvalues --  -19.69597 -19.68354 -19.67728 -19.67073 -10.72273
 Alpha  occ. eigenvalues --  -10.66369 -10.66087 -10.65873 -10.65675 -10.65431
 Alpha  occ. eigenvalues --  -10.65236 -10.64920 -10.64224 -10.63952  -1.29934
 Alpha  occ. eigenvalues --   -1.28710  -1.26457  -1.24336  -1.22672  -1.21547
 Alpha  occ. eigenvalues --   -1.21143  -1.20733  -1.20017  -0.95123  -0.94986
 Alpha  occ. eigenvalues --   -0.92602  -0.87533  -0.87005  -0.82520  -0.80789
 Alpha  occ. eigenvalues --   -0.77484  -0.76162  -0.74771  -0.73297  -0.73064
 Alpha  occ. eigenvalues --   -0.70823  -0.69661  -0.66713  -0.66139  -0.64947
 Alpha  occ. eigenvalues --   -0.64013  -0.62970  -0.62274  -0.61720  -0.61355
 Alpha  occ. eigenvalues --   -0.60538  -0.59762  -0.59706  -0.59168  -0.58335
 Alpha  occ. eigenvalues --   -0.56681  -0.54869  -0.54655  -0.53401  -0.53115
 Alpha  occ. eigenvalues --   -0.52844  -0.52434  -0.50388  -0.50183  -0.50011
 Alpha  occ. eigenvalues --   -0.49140  -0.48835  -0.47487  -0.46706  -0.45674
 Alpha  occ. eigenvalues --   -0.44410  -0.43303  -0.43271  -0.42801  -0.41312
 Alpha  occ. eigenvalues --   -0.38432  -0.37942
 Alpha virt. eigenvalues --   -0.05985  -0.04781  -0.04273  -0.03675  -0.02823
 Alpha virt. eigenvalues --   -0.02381  -0.02087  -0.01537  -0.01415  -0.00761
 Alpha virt. eigenvalues --   -0.00526  -0.00191   0.00119   0.00727   0.00917

 Mulliken charges:
               1
     1  C    0.256671
     2  C   -0.742729
     3  C   -0.645285
     4  C   -0.194171
     5  O    0.043893
     6  C   -0.455999
     7  C   -0.299935
     8  O   -0.358131
     9  O   -0.165065
    10  O   -0.375937
    11  O   -0.181916
    12  O   -0.284816
    13  H    0.199508
    14  H    0.219950
    15  H    0.345217
    16  H    0.290596
    17  H    0.310020
    18  H    0.291707
    19  H    0.301404
    20  H    0.324179
    21  H    0.413048
    22  H    0.279773
    23  H    0.248588
    24  H    0.323378
    25  H    0.328540
    26  O   -0.638758
    27  H    0.438604
    28  H    0.685360
    29  C   -0.229463
    30  C   -0.404239
    31  C   -0.386796
    32  C   -0.208518
    33  H    0.193931
    34  H    0.242449
    35  H    0.245183
    36  H    0.113055
    37  H    0.183437
    38  H    0.249526
    39  H    0.218172
    40  H    0.231856
    41  O   -0.315802
    42  O   -0.090483
 Sum of Mulliken charges =   1.00000

 Dipole moment (field-independent basis, Debye):
    X=             -3.4408    Y=             -0.5058    Z=             -1.3088  Tot=              3.7159
 Quadrupole moment (field-independent basis, Debye-Ang):
   XX=            -86.4474   YY=            -86.2255   ZZ=           -107.0252
   XY=             12.7770   XZ=             -9.5296   YZ=            -10.8066

  Exact polarizability: 175.785   2.039 168.879  -4.843  -4.025 154.678
 Approx polarizability: 172.377   0.703 171.515  -2.891  -5.367 169.754

                      1                      2                      3
                      A                      A                      A
 Frequencies --     28.8361                48.9336                63.3335
 Red. masses --      5.4788                 5.0691                 5.1064
 Frc consts  --      0.0027                 0.0072                 0.0121
 IR Inten    --      2.1534                 3.4667                 0.8958

                      4                      5                      6
                      A                      A                      A
 Frequencies --     79.8184                88.8413               107.9312
 Red. masses --      6.4572                 4.1164                 5.1323
 Frc consts  --      0.0242                 0.0191                 0.0352
 IR Inten    --      2.5846                 2.1120                 5.9500

                      7                      8                      9
                      A                      A                      A
 Frequencies --    118.5402               139.8777               144.8307
 Red. masses --      4.8703                 3.5816                 4.6078
 Frc consts  --      0.0403                 0.0413                 0.0569
 IR Inten    --      2.3226                 2.6317                 7.1285

                     10                     11                     12
                      A                      A                      A
 Frequencies --    160.0097               176.4162               187.2117
 Red. masses --      4.1764                 4.5275                 5.4387
 Frc consts  --      0.0630                 0.0830                 0.1123
 IR Inten    --      7.4374                 5.4780                18.9538

                     13                     14                     15
                      A                      A                      A
 Frequencies --    223.5450               255.1157               271.8524
 Red. masses --      1.1803                 4.9171                 3.6395
 Frc consts  --      0.0348                 0.1886                 0.1585
 IR Inten    --    135.6319                19.7843               131.1019

                     16                     17                     18
                      A                      A                      A
 Frequencies --    275.2723               290.5580               304.2651
 Red. masses --      4.3182                 4.2988                 4.0847
 Frc consts  --      0.1928                 0.2138                 0.2228
 IR Inten    --     44.4815                47.3900                 5.1826

                     19                     20                     21
                      A                      A                      A
 Frequencies --    311.3649               323.0889               331.3709
 Red. masses --      2.7275                 2.7172                 2.1217
 Frc consts  --      0.1558                 0.1671                 0.1373
 IR Inten    --     27.5269                61.2874                 4.0702

                     22                     23                     24
                      A                      A                      A
 Frequencies --    345.2831               377.3615               399.2388
 Red. masses --      1.4013                 3.4576                 2.6568
 Frc consts  --      0.0984                 0.2901                 0.2495
 IR Inten    --    169.5391                79.1900                35.6402

                     25                     26                     27
                      A                      A                      A
 Frequencies --    429.5466               445.8691               474.6300
 Red. masses --      2.1812                 1.9538                 2.7906
 Frc consts  --      0.2371                 0.2288                 0.3704
 IR Inten    --     12.6425                74.0287                 9.2009

                     28                     29                     30
                      A                      A                      A
 Frequencies --    479.8266               506.3443               508.7907
 Red. masses --      2.4082                 2.6902                 2.4179
 Frc consts  --      0.3267                 0.4064                 0.3688
 IR Inten    --     11.4473                 0.5199                16.8153

                     31                     32                     33
                      A                      A                      A
 Frequencies --    524.4067               531.9786               582.3057
 Red. masses --      4.0307                 1.4913                 1.0926
 Frc consts  --      0.6531                 0.2487                 0.2183
 IR Inten    --    138.6922                83.3557               151.2066

                     34                     35                     36
                      A                      A                      A
 Frequencies --    599.7757               608.6524               644.6420
 Red. masses --      1.8622                 1.9824                 3.6070
 Frc consts  --      0.3947                 0.4327                 0.8832
 IR Inten    --     24.4863                 1.8395                32.2884

                     37                     38                     39
                      A                      A                      A
 Frequencies --    671.4828               729.7826               746.3887
 Red. masses --      1.6494                 2.3455                 3.4919
 Frc consts  --      0.4382                 0.7360                 1.1461
 IR Inten    --     65.3053                14.2415                30.0501

                     40                     41                     42
                      A                      A                      A
 Frequencies --    758.2841               862.5687               875.0675
 Red. masses --      1.7815                 3.9474                 4.0736
 Frc consts  --      0.6035                 1.7304                 1.8378
 IR Inten    --     63.0437               106.9915                 1.8968

                     43                     44                     45
                      A                      A                      A
 Frequencies --    885.3783               894.1816               905.1304
 Red. masses --      1.6437                 2.4151                 3.5598
 Frc consts  --      0.7591                 1.1377                 1.7183
 IR Inten    --      4.9937                45.8755               326.3316

                     46                     47                     48
                      A                      A                      A
 Frequencies --    916.4038               928.8260               955.7042
 Red. masses --      2.7769                 2.3817                 2.3879
 Frc consts  --      1.3740                 1.2106                 1.2850
 IR Inten    --     15.7726                37.8003                32.4184

                     49                     50                     51
                      A                      A                      A
 Frequencies --   1010.5004              1020.7182              1044.3741
 Red. masses --      2.5501                 1.9673                 2.2607
 Frc consts  --      1.5342                 1.2076                 1.4528
 IR Inten    --     12.0976               240.7064                 7.1337

                     52                     53                     54
                      A                      A                      A
 Frequencies --   1049.6534              1064.1208              1077.8349
 Red. masses --      1.8678                 2.9408                 3.0764
 Frc consts  --      1.2125                 1.9620                 2.1057
 IR Inten    --     15.9087                29.6434                61.6260

                     55                     56                     57
                      A                      A                      A
 Frequencies --   1083.4644              1099.4473              1113.9345
 Red. masses --      2.2198                 2.5245                 2.3928
 Frc consts  --      1.5353                 1.7979                 1.7493
 IR Inten    --     11.9815                88.1778                48.5046

                     58                     59                     60
                      A                      A                      A
 Frequencies --   1117.7066              1124.3677              1137.0065
 Red. masses --      2.0699                 2.1330                 2.6099
 Frc consts  --      1.5235                 1.5888                 1.9879
 IR Inten    --    179.0944                64.4383                70.8578

                     61                     62                     63
                      A                      A                      A
 Frequencies --   1140.7012              1159.4204              1162.9608
 Red. masses --      3.1138                 4.5407                 2.2641
 Frc consts  --      2.3872                 3.5963                 1.8041
 IR Inten    --      5.0373               104.5511                54.3467

                     64                     65                     66
                      A                      A                      A
 Frequencies --   1164.8551              1200.3988              1215.2207
 Red. masses --      2.5001                 1.8416                 1.2979
 Frc consts  --      1.9987                 1.5635                 1.1293
 IR Inten    --     98.1668                93.3161                34.5184

                     67                     68                     69
                      A                      A                      A
 Frequencies --   1244.3425              1252.7505              1265.1745
 Red. masses --      1.2489                 1.3498                 1.5013
 Frc consts  --      1.1393                 1.2481                 1.4158
 IR Inten    --     62.0250                29.1590                28.7316

                     70                     71                     72
                      A                      A                      A
 Frequencies --   1269.6564              1285.5172              1305.8708
 Red. masses --      1.0787                 1.2496                 1.1539
 Frc consts  --      1.0245                 1.2167                 1.1594
 IR Inten    --      2.8947                50.4017                 9.7171

                     73                     74                     75
                      A                      A                      A
 Frequencies --   1308.1391              1317.5956              1345.6988
 Red. masses --      1.3763                 1.4752                 1.2371
 Frc consts  --      1.3877                 1.5089                 1.3200
 IR Inten    --     14.7852                20.4398                18.4985

                     76                     77                     78
                      A                      A                      A
 Frequencies --   1363.9790              1376.6353              1381.8887
 Red. masses --      1.1473                 1.6135                 1.1594
 Frc consts  --      1.2576                 1.8016                 1.3044
 IR Inten    --     11.1030                28.5984               202.5856

                     79                     80                     81
                      A                      A                      A
 Frequencies --   1389.0778              1391.1645              1398.3730
 Red. masses --      1.5592                 1.5141                 1.1917
 Frc consts  --      1.7725                 1.7265                 1.3730
 IR Inten    --     32.3837                 6.7942               231.2308

                     82                     83                     84
                      A                      A                      A
 Frequencies --   1410.9253              1427.2934              1438.9073
 Red. masses --      1.3058                 1.3056                 1.4195
 Frc consts  --      1.5316                 1.5671                 1.7317
 IR Inten    --     15.5343                17.2654                13.1296

                     85                     86                     87
                      A                      A                      A
 Frequencies --   1442.4136              1452.5049              1456.0887
 Red. masses --      1.2857                 1.4887                 1.3626
 Frc consts  --      1.5760                 1.8505                 1.7021
 IR Inten    --     37.3220                18.5711                17.9806

                     88                     89                     90
                      A                      A                      A
 Frequencies --   1463.4656              1486.1287              1502.3832
 Red. masses --      1.4496                 1.1891                 1.0826
 Frc consts  --      1.8293                 1.5474                 1.4397
 IR Inten    --     36.5229                69.2983                 5.8507

                     91                     92                     93
                      A                      A                      A
 Frequencies --   1511.5926              1513.5120              1513.5773
 Red. masses --      1.0794                 1.0849                 1.0855
 Frc consts  --      1.4531                 1.4642                 1.4652
 IR Inten    --      2.6144                34.4068                13.4423

                     94                     95                     96
                      A                      A                      A
 Frequencies --   1519.0335              1541.9038              1646.7584
 Red. masses --      1.1006                 1.0813                 1.0398
 Frc consts  --      1.4963                 1.5146                 1.6613
 IR Inten    --      5.8602                71.6287                57.1201

                     97                     98                     99
                      A                      A                      A
 Frequencies --   1743.7421              1906.3337              2816.5400
 Red. masses --      1.0289                 1.1900                 1.0772
 Frc consts  --      1.8433                 2.5479                 5.0349
 IR Inten    --     98.4775              5171.3157              1248.5431

                    100                    101                    102
                      A                      A                      A
 Frequencies --   3046.7436              3053.4923              3062.1625
 Red. masses --      1.0694                 1.0688                 1.0577
 Frc consts  --      5.8489                 5.8713                 5.8437
 IR Inten    --     21.2907                33.3272                24.9910

                    103                    104                    105
                      A                      A                      A
 Frequencies --   3082.0806              3088.6623              3099.4328
 Red. masses --      1.0716                 1.0646                 1.0865
 Frc consts  --      5.9973                 5.9839                 6.1495
 IR Inten    --     15.9447                18.8421                21.4322

                    106                    107                    108
                      A                      A                      A
 Frequencies --   3111.6265              3124.5994              3133.6958
 Red. masses --      1.1090                 1.0619                 1.0864
 Frc consts  --      6.3264                 6.1085                 6.2856
 IR Inten    --     17.2016                 3.5520                16.6890

                    109                    110                    111
                      A                      A                      A
 Frequencies --   3145.7852              3150.3664              3154.3585
 Red. masses --      1.0875                 1.0969                 1.0975
 Frc consts  --      6.3408                 6.4141                 6.4342
 IR Inten    --      3.3150                11.3667                 8.5714

                    112                    113                    114
                      A                      A                      A
 Frequencies --   3173.8027              3187.5756              3216.8700
 Red. masses --      1.1035                 1.1071                 1.0883
 Frc consts  --      6.5490                 6.6275                 6.6351
 IR Inten    --      5.7913                 1.1190                11.2037

                    115                    116                    117
                      A                      A                      A
 Frequencies --   3495.2754              3697.2307              3813.0251
 Red. masses --      1.0617                 1.0669                 1.0663
 Frc consts  --      7.6424                 8.5926                 9.1340
 IR Inten    --    805.4187               424.7527               132.1042

                    118                    119                    120
                      A                      A                      A
 Frequencies --   3833.5363              3853.8649              3883.5248
 Red. masses --      1.0663                 1.0661                 1.0671
 Frc consts  --      9.2325                 9.3290                 9.4822
 IR Inten    --    108.8520                77.4579               142.9752

 - Thermochemistry -
 -------------------
 Temperature   443.150 Kelvin.  Pressure   1.00000 Atm.
 Atom     1 has atomic number  6 and mass  12.00000

 Molecular mass:   287.13421 amu.
 Principal axes and moments of inertia in atomic units:
                           1         2         3
     Eigenvalues --  3043.38169********************
           X            0.99999   0.00355  -0.00330
           Y           -0.00361   0.99984  -0.01727
           Z            0.00324   0.01728   0.99985
 This molecule is an asymmetric top.
 Rotational symmetry number  1.
 Warning -- assumption of classical behavior for rotation
           may cause significant error
 Rotational temperatures (Kelvin)      0.02846     0.00770     0.00717
 Rotational constants (GHZ):           0.59301     0.16037     0.14941
 Zero-point vibrational energy     954633.3 (Joules/Mol)
                                  228.16284 (Kcal/Mol)
 Warning -- explicit consideration of  46 degrees of freedom as
           vibrations may cause significant error
 Vibrational temperatures:     41.49    70.40    91.12   114.84   127.82
          (Kelvin)            155.29   170.55   201.25   208.38   230.22
                              253.82   269.36   321.63   367.05   391.13
                              396.06   418.05   437.77   447.98   464.85
                              476.77   496.79   542.94   574.42   618.02
                              641.51   682.89   690.36   728.52   732.04
                              754.50   765.40   837.81   862.94   875.71
                              927.50   966.11  1049.99  1073.89  1091.00
                             1241.04  1259.03  1273.86  1286.53  1302.28
                             1318.50  1336.37  1375.05  1453.88  1468.59
                             1502.62  1510.22  1531.03  1550.76  1558.86
                             1581.86  1602.70  1608.13  1617.71  1635.90
                             1641.21  1668.15  1673.24  1675.97  1727.11
                             1748.43  1790.33  1802.43  1820.30  1826.75
                             1849.57  1878.86  1882.12  1895.73  1936.16
                             1962.46  1980.67  1988.23  1998.57  2001.58
                             2011.95  2030.01  2053.56  2070.27  2075.31
                             2089.83  2094.99  2105.60  2138.21  2161.59
                             2174.84  2177.61  2177.70  2185.55  2218.46
                             2369.32  2508.86  2742.79  4052.37  4383.58
                             4393.29  4405.77  4434.43  4443.90  4459.39
                             4476.94  4495.60  4508.69  4526.08  4532.67
                             4538.42  4566.39  4586.21  4628.36  5028.92
                             5319.49  5486.09  5515.60  5544.85  5587.53

 Zero-point correction=                           0.363601 (Hartree/Particle)
 Thermal correction to Energy=                    0.405950
 Thermal correction to Enthalpy=                  0.407353
 Thermal correction to Gibbs Free Energy=         0.276660
 Sum of electronic and zero-point Energies=          -1071.266405
 Sum of electronic and thermal Energies=             -1071.224056
 Sum of electronic and thermal Enthalpies=           -1071.222653
 Sum of electronic and thermal Free Energies=        -1071.353345

                     E (Thermal)             CV                S
                      KCal/Mol        Cal/Mol-Kelvin    Cal/Mol-Kelvin
 Total                  254.737            110.647            185.063
 Electronic               0.000              0.000              0.000
 Translational            1.321              2.981             44.831
 Rotational               1.321              2.981             35.562
 Vibrational            252.095            104.686            104.671
 Vibration     1          0.881              1.986              6.695
 Vibration     2          0.882              1.983              5.645
 Vibration     3          0.884              1.980              5.134
 Vibration     4          0.886              1.976              4.676
 Vibration     5          0.887              1.973              4.465
 Vibration     6          0.890              1.967              4.081
 Vibration     7          0.891              1.963              3.897
 Vibration     8          0.896              1.953              3.573
 Vibration     9          0.897              1.951              3.505
 Vibration    10          0.900              1.943              3.311
 Vibration    11          0.905              1.934              3.122
 Vibration    12          0.908              1.927              3.007
 Vibration    13          0.919              1.902              2.667
 Vibration    14          0.930              1.877              2.417
 Vibration    15          0.937              1.863              2.299
 Vibration    16          0.938              1.860              2.275
 Vibration    17          0.945              1.846              2.175
 Vibration    18          0.951              1.833              2.090
 Vibration    19          0.954              1.826              2.048
 Vibration    20          0.960              1.815              1.981
 Vibration    21          0.964              1.806              1.935
 Vibration    22          0.971              1.792              1.861
 Vibration    23          0.988              1.756              1.703
 Vibration    24          1.001              1.731              1.605
 Vibration    25          1.019              1.694              1.480
 Vibration    26          1.029              1.674              1.417
 Vibration    27          1.048              1.637              1.314
 Vibration    28          1.052              1.630              1.296
 Vibration    29          1.071              1.594              1.209
 Vibration    30          1.072              1.591              1.201
 Vibration    31          1.084              1.569              1.154
 Vibration    32          1.089              1.559              1.131
 Vibration    33          1.129              1.488              0.993
 Vibration    34          1.143              1.463              0.950
 Vibration    35          1.150              1.450              0.928
 Vibration    36          1.181              1.397              0.847
 Vibration    37          1.205              1.357              0.790
 Vibration    38          1.259              1.270              0.681
 Vibration    39          1.275              1.245              0.653
 Vibration    40          1.286              1.227              0.633
 Vibration    41          1.393              1.074              0.485
 Vibration    42          1.406              1.056              0.469
 Vibration    43          1.417              1.041              0.457
 Vibration    44          1.427              1.028              0.447
 Vibration    45          1.439              1.013              0.434
 Vibration    46          1.451              0.997              0.422

                           ! Non-Optimized Parameters !
 Normal termination of Gaussian 16 at Sun Jan 13 04:19:30 2019.
