 Gaussian 16, Revision A.03,
 Gaussian 16:  ES64L-G16RevA.03 25-Dec-2016

 ----------------------------------------------------------------------
 # opt freq m062x/6-311++g(d,p) scrf=(solvent=2-propanol,smd) scf=(xqc,
 maxconventionalcycles=400) temperature=443.15
 ----------------------------------------------------------------------

 -------------------
 Title Card Required
 -------------------
 Symbolic Z-matrix:
 Charge =  1 Multiplicity = 1

 SCF Done:  E(RM062X) =  -958.389459450     A.U. after   13 cycles
 SCF Done:  E(RM062X) =  -958.392313710     A.U. after   11 cycles
 SCF Done:  E(RM062X) =  -958.384809044     A.U. after   12 cycles
 SCF Done:  E(RM062X) =  -958.391047064     A.U. after   12 cycles
 SCF Done:  E(RM062X) =  -958.393076085     A.U. after    9 cycles
 SCF Done:  E(RM062X) =  -958.394108630     A.U. after   11 cycles
 SCF Done:  E(RM062X) =  -958.393910469     A.U. after   11 cycles
 SCF Done:  E(RM062X) =  -958.393502980     A.U. after   12 cycles
 SCF Done:  E(RM062X) =  -958.394478798     A.U. after   10 cycles
 SCF Done:  E(RM062X) =  -958.394629002     A.U. after   11 cycles
 SCF Done:  E(RM062X) =  -958.394879326     A.U. after    8 cycles
 SCF Done:  E(RM062X) =  -958.394881285     A.U. after    8 cycles
 SCF Done:  E(RM062X) =  -958.394882332     A.U. after    8 cycles
 SCF Done:  E(RM062X) =  -958.394883321     A.U. after    7 cycles
 SCF Done:  E(RM062X) =  -958.394883951     A.U. after    8 cycles
 SCF Done:  E(RM062X) =  -958.394884069     A.U. after    7 cycles
 SCF Done:  E(RM062X) =  -958.394884146     A.U. after    7 cycles
 SCF Done:  E(RM062X) =  -958.394884188     A.U. after    7 cycles
 SCF Done:  E(RM062X) =  -958.394884296     A.U. after    7 cycles
 Optimization completed.
    -- Stationary point found.
 Normal termination of Gaussian 16 at Wed Dec 12 23:37:23 2018.

 ----------------------------------------------------------------------
 #N Geom=AllCheck Guess=TCheck SCRF=Check GenChk RM062X/6-311++G(d,p) F
 req
 ----------------------------------------------------------------------

 Structure from the checkpoint file:  "/scratch/ykim/gaussianScratch.6086217/Gau-50388.chk"
 -------------------
 Title Card Required
 -------------------
 Charge =  1 Multiplicity = 1

                         Standard orientation:
 ---------------------------------------------------------------------
 Center     Atomic      Atomic             Coordinates (Angstroms)
 Number     Number       Type             X           Y           Z
 ---------------------------------------------------------------------
      1          6           0        3.032116    0.033357   -1.115988
      2          6           0        3.267411    1.162318   -0.097445
      3          6           0        2.357556    0.781536    1.082693
      4          6           0        1.190237    0.110151    0.330898
      5          8           0        1.815360   -0.620289   -0.702091
      6          6           0        4.135764   -0.994466   -1.199491
      7          6           0        0.364145   -0.855045    1.159705
      8          8           0        4.365979   -1.521956    0.102754
      9          8           0        2.813711    2.369190   -0.704315
     10          8           0        0.317175    1.089203   -0.202660
     11          8           0        2.984632   -0.079409    2.001007
     12          8           0       -0.618625   -1.521886    0.361029
     13          1           0        3.834201   -1.792044   -1.884752
     14          1           0        5.036577   -0.510834   -1.588999
     15          1           0        5.128461   -2.110695    0.086076
     16          1           0        2.887640    0.470801   -2.107651
     17          1           0        4.313064    1.242033    0.208180
     18          1           0        2.994076    3.104462   -0.104974
     19          1           0        2.015459    1.661492    1.628507
     20          1           0        3.506000   -0.738112    1.507961
     21          1           0        0.846194    1.795757   -0.607900
     22          1           0       -0.176496   -0.306398    1.931271
     23          1           0        1.015806   -1.593389    1.623673
     24          1           0       -0.178754   -2.117416   -0.261383
     25          1           0       -1.563395    0.898384   -0.699296
     26          8           0       -2.171538    0.133905   -0.727421
     27          1           0       -1.623920   -0.619047   -0.290634
     28          1           0       -3.081545    0.324902   -0.207316
     29          8           0       -4.306211    0.509344    0.441973
     30          1           0       -4.377539    1.395063    0.824883
     31          6           0       -5.494473    0.215906   -0.347476
     32          1           0       -5.478344    0.872568   -1.222166
     33          6           0       -5.379736   -1.230876   -0.776240
     34          1           0       -5.369517   -1.884815    0.099744
     35          1           0       -6.236003   -1.495978   -1.399418
     36          1           0       -4.469742   -1.399909   -1.356312
     37          6           0       -6.725318    0.489171    0.491243
     38          1           0       -6.754189    1.532366    0.816725
     39          1           0       -7.623327    0.291692   -0.097993
     40          1           0       -6.734798   -0.158009    1.372175
 ---------------------------------------------------------------------

 SCF Done:  E(RM062X) =  -958.394884296     A.U. after    1 cycles

 The electronic state is 1-A.
 Alpha  occ. eigenvalues --  -19.69131 -19.66806 -19.66627 -19.64976 -19.64764
 Alpha  occ. eigenvalues --  -19.64712 -19.64294 -19.63122 -10.66038 -10.60783
 Alpha  occ. eigenvalues --  -10.60483 -10.60454 -10.60368 -10.60316 -10.59375
 Alpha  occ. eigenvalues --  -10.52757 -10.52732  -1.23228  -1.22042  -1.18590
 Alpha  occ. eigenvalues --   -1.17736  -1.16912  -1.16733  -1.15540  -1.14502
 Alpha  occ. eigenvalues --   -0.89530  -0.88754  -0.87550  -0.82108  -0.78970
 Alpha  occ. eigenvalues --   -0.75552  -0.71247  -0.69563  -0.68619  -0.68356
 Alpha  occ. eigenvalues --   -0.66802  -0.65020  -0.63871  -0.62265  -0.60975
 Alpha  occ. eigenvalues --   -0.60396  -0.59417  -0.56608  -0.55346  -0.54327
 Alpha  occ. eigenvalues --   -0.53947  -0.53245  -0.52378  -0.51312  -0.50757
 Alpha  occ. eigenvalues --   -0.49955  -0.49199  -0.48499  -0.47283  -0.46331
 Alpha  occ. eigenvalues --   -0.45795  -0.45454  -0.45156  -0.44067  -0.43543
 Alpha  occ. eigenvalues --   -0.43105  -0.42519  -0.40694  -0.40577  -0.39417
 Alpha  occ. eigenvalues --   -0.38568  -0.38083  -0.37260  -0.36212  -0.33760
 Alpha virt. eigenvalues --   -0.00974   0.00045   0.00419   0.00804   0.01206
 Alpha virt. eigenvalues --    0.01562   0.01935   0.02780   0.02844   0.03208
 Alpha virt. eigenvalues --    0.03372   0.03811   0.04697   0.04713   0.05074

 Mulliken charges:
               1
     1  C    0.362470
     2  C   -0.526967
     3  C   -0.444919
     4  C   -0.230637
     5  O   -0.053552
     6  C   -0.559085
     7  C   -0.570426
     8  O   -0.409850
     9  O   -0.311236
    10  O   -0.313049
    11  O   -0.241969
    12  O   -0.352259
    13  H    0.221451
    14  H    0.211598
    15  H    0.378077
    16  H    0.305360
    17  H    0.329824
    18  H    0.327881
    19  H    0.325744
    20  H    0.343396
    21  H    0.372487
    22  H    0.294018
    23  H    0.230850
    24  H    0.368598
    25  H    0.426202
    26  O   -0.633587
    27  H    0.479343
    28  H    0.578749
    29  O   -0.389614
    30  H    0.352246
    31  C   -0.173146
    32  H    0.220946
    33  C   -0.474437
    34  H    0.189867
    35  H    0.187162
    36  H    0.181937
    37  C   -0.551062
    38  H    0.172852
    39  H    0.188225
    40  H    0.186512
 Sum of Mulliken charges =   1.00000

 Dipole moment (field-independent basis, Debye):
    X=             -3.4947    Y=              2.6364    Z=             -2.0106  Tot=              4.8172
 Quadrupole moment (field-independent basis, Debye-Ang):
   XX=            -11.7345   YY=            -81.3787   ZZ=           -106.3801
   XY=            -13.2898   XZ=             -7.8427   YZ=              6.6461

  Exact polarizability: 195.726  -4.899 182.445  -3.020   0.905 177.799
 Approx polarizability: 161.085  -3.644 158.024  -0.202   0.042 155.332

                      1                      2                      3
                      A                      A                      A
 Frequencies --     10.1926                19.2898                26.4806
 Red. masses --      3.5873                 3.0766                 3.9424
 Frc consts  --      0.0002                 0.0007                 0.0016
 IR Inten    --      0.2924                 0.9807                 1.9233

                      4                      5                      6
                      A                      A                      A
 Frequencies --     35.9590                48.5667                66.3547
 Red. masses --      4.4968                 6.0071                 4.4440
 Frc consts  --      0.0034                 0.0083                 0.0115
 IR Inten    --      7.1927                 8.1127                 1.6421

                      7                      8                      9
                      A                      A                      A
 Frequencies --     77.3105               118.7101               129.6988
 Red. masses --      4.3010                 3.7417                 5.1545
 Frc consts  --      0.0151                 0.0311                 0.0511
 IR Inten    --      0.9337                 1.5352                 4.6094

                     10                     11                     12
                      A                      A                      A
 Frequencies --    142.8024               166.7724               183.6405
 Red. masses --      4.6837                 4.6209                 5.5203
 Frc consts  --      0.0563                 0.0757                 0.1097
 IR Inten    --     33.0838                22.2942                20.8807

                     13                     14                     15
                      A                      A                      A
 Frequencies --    217.6870               230.1584               244.3919
 Red. masses --      1.1207                 1.0252                 5.6895
 Frc consts  --      0.0313                 0.0320                 0.2002
 IR Inten    --    222.5756                 0.1598                61.6128

                     16                     17                     18
                      A                      A                      A
 Frequencies --    259.5502               264.8993               280.2995
 Red. masses --      3.5407                 2.4024                 1.7290
 Frc consts  --      0.1405                 0.0993                 0.0800
 IR Inten    --    172.8945                63.3771               132.1494

                     19                     20                     21
                      A                      A                      A
 Frequencies --    290.1550               297.2285               301.4288
 Red. masses --      2.0937                 4.4343                 2.9945
 Frc consts  --      0.1039                 0.2308                 0.1603
 IR Inten    --      7.9470                41.8832                15.9830

                     22                     23                     24
                      A                      A                      A
 Frequencies --    358.4350               369.3727               377.6918
 Red. masses --      2.4901                 2.2090                 2.1044
 Frc consts  --      0.1885                 0.1776                 0.1769
 IR Inten    --     11.1148                63.5646                14.9655

                     25                     26                     27
                      A                      A                      A
 Frequencies --    397.3819               424.4377               432.2220
 Red. masses --      1.6106                 1.4063                 2.0513
 Frc consts  --      0.1498                 0.1493                 0.2258
 IR Inten    --     82.0672                60.9226               176.2180

                     28                     29                     30
                      A                      A                      A
 Frequencies --    444.9305               456.3543               466.6487
 Red. masses --      1.8723                 2.7721                 1.9225
 Frc consts  --      0.2184                 0.3402                 0.2467
 IR Inten    --    147.8696                46.3773                61.8010

                     31                     32                     33
                      A                      A                      A
 Frequencies --    493.7409               512.1643               516.3879
 Red. masses --      1.6040                 1.1911                 2.4082
 Frc consts  --      0.2304                 0.1841                 0.3783
 IR Inten    --     62.5117                36.8716               245.4167

                     34                     35                     36
                      A                      A                      A
 Frequencies --    524.8998               533.9504               608.0442
 Red. masses --      1.2827                 1.8916                 5.3099
 Frc consts  --      0.2082                 0.3177                 1.1567
 IR Inten    --    154.2351               124.0836                35.8732

                     37                     38                     39
                      A                      A                      A
 Frequencies --    643.0083               678.2008               741.2230
 Red. masses --      4.1909                 1.1243                 4.9793
 Frc consts  --      1.0209                 0.3047                 1.6118
 IR Inten    --     79.7329                95.1189                14.8810

                     40                     41                     42
                      A                      A                      A
 Frequencies --    758.0753               829.9474               870.7259
 Red. masses --      5.8937                 2.7827                 5.2575
 Frc consts  --      1.9955                 1.1293                 2.3485
 IR Inten    --     60.3334                45.1135                64.3732

                     43                     44                     45
                      A                      A                      A
 Frequencies --    907.0746               917.5578               941.4311
 Red. masses --      2.0316                 2.7499                 1.1572
 Frc consts  --      0.9848                 1.3641                 0.6043
 IR Inten    --     30.6108                76.8182                 2.9556

                     46                     47                     48
                      A                      A                      A
 Frequencies --    953.3192               961.6857               964.2948
 Red. masses --      1.7792                 1.5777                 2.0308
 Frc consts  --      0.9527                 0.8597                 1.1126
 IR Inten    --     13.0254                 8.2162                37.5021

                     49                     50                     51
                      A                      A                      A
 Frequencies --    985.6193              1015.0035              1035.6774
 Red. masses --      1.4480                 2.4302                 2.4907
 Frc consts  --      0.8288                 1.4751                 1.5741
 IR Inten    --    390.2529                27.8838                85.2628

                     52                     53                     54
                      A                      A                      A
 Frequencies --   1057.2190              1088.6019              1104.8302
 Red. masses --      2.4378                 4.1044                 1.7245
 Frc consts  --      1.6054                 2.8657                 1.2402
 IR Inten    --     51.5157                51.4034                96.6281

                     55                     56                     57
                      A                      A                      A
 Frequencies --   1109.9933              1122.8649              1132.3671
 Red. masses --      2.1628                 3.1534                 3.1216
 Frc consts  --      1.5700                 2.3425                 2.3583
 IR Inten    --    107.7288               214.5268                18.9968

                     58                     59                     60
                      A                      A                      A
 Frequencies --   1139.0189              1144.5616              1167.9058
 Red. masses --      1.9057                 1.8863                 2.7408
 Frc consts  --      1.4567                 1.4559                 2.2026
 IR Inten    --    102.2177                88.4523               174.9154

                     61                     62                     63
                      A                      A                      A
 Frequencies --   1195.0014              1202.1395              1214.1970
 Red. masses --      1.9069                 1.1901                 2.7326
 Frc consts  --      1.6044                 1.0133                 2.3736
 IR Inten    --     60.1972                 3.8891               115.1333

                     64                     65                     66
                      A                      A                      A
 Frequencies --   1234.9657              1241.7155              1263.7639
 Red. masses --      1.4321                 1.3900                 1.3233
 Frc consts  --      1.2868                 1.2627                 1.2452
 IR Inten    --     72.6245               219.4843                 4.2020

                     67                     68                     69
                      A                      A                      A
 Frequencies --   1269.6746              1281.1462              1311.8100
 Red. masses --      1.1982                 1.2278                 1.2169
 Frc consts  --      1.1380                 1.1873                 1.2338
 IR Inten    --     37.3340                42.2855                55.1027

                     70                     71                     72
                      A                      A                      A
 Frequencies --   1318.3226              1358.1138              1365.6964
 Red. masses --      1.1023                 1.3774                 1.3551
 Frc consts  --      1.1287                 1.4969                 1.4891
 IR Inten    --    459.5102                34.4861                36.0007

                     73                     74                     75
                      A                      A                      A
 Frequencies --   1370.2141              1379.5971              1382.0206
 Red. masses --      1.5022                 1.2053                 1.3425
 Frc consts  --      1.6618                 1.3516                 1.5107
 IR Inten    --     37.9265                21.2224                41.3306

                     76                     77                     78
                      A                      A                      A
 Frequencies --   1388.9737              1406.8465              1416.6183
 Red. masses --      1.2239                 1.2522                 1.3089
 Frc consts  --      1.3911                 1.4602                 1.5476
 IR Inten    --     18.9822               194.4480                27.5868

                     79                     80                     81
                      A                      A                      A
 Frequencies --   1431.2959              1442.7744              1459.4470
 Red. masses --      1.5541                 1.5610                 1.5335
 Frc consts  --      1.8758                 1.9145                 1.9244
 IR Inten    --     38.8018                 6.4451                 6.7504

                     82                     83                     84
                      A                      A                      A
 Frequencies --   1473.5018              1473.7478              1477.4407
 Red. masses --      1.2957                 1.2890                 1.4454
 Frc consts  --      1.6575                 1.6495                 1.8589
 IR Inten    --     18.2877                12.9078                68.1699

                     85                     86                     87
                      A                      A                      A
 Frequencies --   1481.8664              1485.5404              1486.0499
 Red. masses --      1.1180                 1.0769                 1.0843
 Frc consts  --      1.4464                 1.4002                 1.4108
 IR Inten    --      2.4446                 2.3999                12.1006

                     88                     89                     90
                      A                      A                      A
 Frequencies --   1493.4289              1505.3062              1651.0394
 Red. masses --      1.0565                 1.0823                 1.0502
 Frc consts  --      1.3883                 1.4449                 1.6867
 IR Inten    --     16.9410                 9.2393               201.6045

                     91                     92                     93
                      A                      A                      A
 Frequencies --   1684.6267              2027.3226              2620.5886
 Red. masses --      1.0333                 1.1685                 1.0744
 Frc consts  --      1.7278                 2.8297                 4.3474
 IR Inten    --    113.7581              5199.6492              1936.9815

                     94                     95                     96
                      A                      A                      A
 Frequencies --   3059.4074              3064.8086              3066.6067
 Red. masses --      1.0357                 1.0370                 1.0580
 Frc consts  --      5.7116                 5.7388                 5.8619
 IR Inten    --     15.8079                 8.1769                37.8799

                     97                     98                     99
                      A                      A                      A
 Frequencies --   3082.3649              3099.2328              3111.7824
 Red. masses --      1.0857                 1.0861                 1.0896
 Frc consts  --      6.0777                 6.1466                 6.2161
 IR Inten    --     29.6896                29.3212                14.3368

                    100                    101                    102
                      A                      A                      A
 Frequencies --   3116.4067              3121.0835              3136.1509
 Red. masses --      1.1075                 1.0599                 1.1040
 Frc consts  --      6.3371                 6.0832                 6.3977
 IR Inten    --     34.6531                 9.1424                22.4979

                    103                    104                    105
                      A                      A                      A
 Frequencies --   3137.3501              3141.9693              3146.5402
 Red. masses --      1.0890                 1.1036                 1.1030
 Frc consts  --      6.3156                 6.4189                 6.4342
 IR Inten    --     20.2913                23.8385                21.0758

                    106                    107                    108
                      A                      A                      A
 Frequencies --   3151.6526              3183.4839              3641.6814
 Red. masses --      1.1025                 1.1105                 1.0677
 Frc consts  --      6.4522                 6.6309                 8.3428
 IR Inten    --     28.1973                 6.3583               643.1394

                    109                    110                    111
                      A                      A                      A
 Frequencies --   3681.8498              3731.1647              3815.9769
 Red. masses --      1.0624                 1.0666                 1.0670
 Frc consts  --      8.4853                 8.7489                 9.1544
 IR Inten    --    604.5382               255.4199               176.5921

                    112                    113                    114
                      A                      A                      A
 Frequencies --   3824.2665              3839.0047              3873.8701
 Red. masses --      1.0666                 1.0668                 1.0672
 Frc consts  --      9.1908                 9.2637                 9.4356
 IR Inten    --    185.9810               148.6331               179.3029

 - Thermochemistry -
 -------------------
 Temperature   443.150 Kelvin.  Pressure   1.00000 Atm.
 Atom     1 has atomic number  6 and mass  12.00000

 Molecular mass:   259.13929 amu.
 Principal axes and moments of inertia in atomic units:
                           1         2         3
     Eigenvalues --  1815.97266********************
           X            1.00000  -0.00031  -0.00173
           Y            0.00040   0.99881   0.04870
           Z            0.00171  -0.04871   0.99881
 This molecule is an asymmetric top.
 Rotational symmetry number  1.
 Warning -- assumption of classical behavior for rotation
           may cause significant error
 Rotational temperatures (Kelvin)      0.04770     0.00711     0.00690
 Rotational constants (GHZ):           0.99382     0.14814     0.14367
 Zero-point vibrational energy     905692.1 (Joules/Mol)
                                  216.46560 (Kcal/Mol)
 Warning -- explicit consideration of  44 degrees of freedom as
           vibrations may cause significant error
 Vibrational temperatures:     14.66    27.75    38.10    51.74    69.88
          (Kelvin)             95.47   111.23   170.80   186.61   205.46
                              239.95   264.22   313.20   331.15   351.63
                              373.43   381.13   403.29   417.47   427.65
                              433.69   515.71   531.44   543.41   571.74
                              610.67   621.87   640.16   656.59   671.40
                              710.38   736.89   742.97   755.21   768.24
                              874.84   925.15   975.78  1066.45  1090.70
                             1194.11  1252.78  1305.08  1320.16  1354.51
                             1371.61  1383.65  1387.41  1418.09  1460.36
                             1490.11  1521.10  1566.26  1589.60  1597.03
                             1615.55  1629.22  1638.79  1646.77  1680.36
                             1719.34  1729.61  1746.96  1776.84  1786.55
                             1818.27  1826.78  1843.28  1887.40  1896.77
                             1954.02  1964.93  1971.43  1984.93  1988.42
                             1998.42  2024.14  2038.20  2059.32  2075.83
                             2099.82  2120.04  2120.39  2125.71  2132.08
                             2137.36  2138.09  2148.71  2165.80  2375.48
                             2423.80  2916.86  3770.44  4401.80  4409.58
                             4412.16  4434.84  4459.10  4477.16  4483.81
                             4490.54  4512.22  4513.95  4520.59  4527.17
                             4534.53  4580.32  5239.57  5297.36  5368.31
                             5490.34  5502.27  5523.47  5573.64

 Zero-point correction=                           0.344960 (Hartree/Particle)
 Thermal correction to Energy=                    0.388286
 Thermal correction to Enthalpy=                  0.389689
 Thermal correction to Gibbs Free Energy=         0.250250
 Sum of electronic and zero-point Energies=           -958.049924
 Sum of electronic and thermal Energies=              -958.006599
 Sum of electronic and thermal Enthalpies=            -958.005195
 Sum of electronic and thermal Free Energies=         -958.144634

                     E (Thermal)             CV                S
                      KCal/Mol        Cal/Mol-Kelvin    Cal/Mol-Kelvin
 Total                  243.653            108.099            197.448
 Electronic               0.000              0.000              0.000
 Translational            1.321              2.981             44.525
 Rotational               1.321              2.981             35.166
 Vibrational            241.011            102.137            117.756
 Vibration     1          0.881              1.987              8.761
 Vibration     2          0.881              1.987              7.493
 Vibration     3          0.881              1.986              6.864
 Vibration     4          0.882              1.985              6.256
 Vibration     5          0.882              1.983              5.660
 Vibration     6          0.884              1.980              5.042
 Vibration     7          0.885              1.977              4.739
 Vibration     8          0.892              1.963              3.894
 Vibration     9          0.894              1.958              3.721
 Vibration    10          0.896              1.952              3.532
 Vibration    11          0.902              1.939              3.230
 Vibration    12          0.907              1.929              3.044
 Vibration    13          0.917              1.907              2.718
 Vibration    14          0.921              1.897              2.612
 Vibration    15          0.926              1.886              2.498
 Vibration    16          0.932              1.874              2.385
 Vibration    17          0.934              1.869              2.347
 Vibration    18          0.941              1.856              2.242
 Vibration    19          0.945              1.847              2.178
 Vibration    20          0.948              1.840              2.133
 Vibration    21          0.950              1.836              2.108
 Vibration    22          0.978              1.777              1.794
 Vibration    23          0.984              1.765              1.741
 Vibration    24          0.988              1.756              1.702
 Vibration    25          1.000              1.733              1.613
 Vibration    26          1.016              1.700              1.500
 Vibration    27          1.021              1.691              1.469
 Vibration    28          1.029              1.675              1.421
 Vibration    29          1.036              1.660              1.378
 Vibration    30          1.043              1.647              1.341
 Vibration    31          1.062              1.611              1.249
 Vibration    32          1.075              1.586              1.191
 Vibration    33          1.078              1.581              1.178
 Vibration    34          1.084              1.569              1.152
 Vibration    35          1.091              1.556              1.125
 Vibration    36          1.150              1.450              0.930
 Vibration    37          1.179              1.399              0.850
 Vibration    38          1.211              1.347              0.777
 Vibration    39          1.270              1.253              0.661
 Vibration    40          1.286              1.228              0.634
 Vibration    41          1.358              1.121              0.527
 Vibration    42          1.401              1.062              0.475
 Vibration    43          1.441              1.010              0.432
 Vibration    44          1.452              0.995              0.421

                           ! Non-Optimized Parameters !
 Normal termination of Gaussian 16 at Thu Dec 13 00:12:11 2018.
