 Gaussian 16, Revision A.03,
 Gaussian 16:  ES64L-G16RevA.03 25-Dec-2016

 ----------------------------------------------------------------------
 # opt=maxstep=1 freq m062x/6-311++g(d,p) scrf=(solvent=1-butanol,smd)
 temperature=443.15 nosymm
 ----------------------------------------------------------------------

 -------------------
 Title Card Required
 -------------------
 Symbolic Z-matrix:
 Charge =  1 Multiplicity = 1

 SCF Done:  E(RM062X) =  -997.691548499     A.U. after   13 cycles
 SCF Done:  E(RM062X) =  -997.691545765     A.U. after    9 cycles
 SCF Done:  E(RM062X) =  -997.691548266     A.U. after    9 cycles
 SCF Done:  E(RM062X) =  -997.691548516     A.U. after    8 cycles
 SCF Done:  E(RM062X) =  -997.691548727     A.U. after    9 cycles
 SCF Done:  E(RM062X) =  -997.691544655     A.U. after    9 cycles
 SCF Done:  E(RM062X) =  -997.691548575     A.U. after    9 cycles
 SCF Done:  E(RM062X) =  -997.691549711     A.U. after    7 cycles
 SCF Done:  E(RM062X) =  -997.691548849     A.U. after    9 cycles
 SCF Done:  E(RM062X) =  -997.691541887     A.U. after   11 cycles
 SCF Done:  E(RM062X) =  -997.691590445     A.U. after    8 cycles
 SCF Done:  E(RM062X) =  -997.691590949     A.U. after    8 cycles
 SCF Done:  E(RM062X) =  -997.691591406     A.U. after    8 cycles
 SCF Done:  E(RM062X) =  -997.691591783     A.U. after    7 cycles
 SCF Done:  E(RM062X) =  -997.691591886     A.U. after    7 cycles
 SCF Done:  E(RM062X) =  -997.691591945     A.U. after    6 cycles
 SCF Done:  E(RM062X) =  -997.691591988     A.U. after    6 cycles
 SCF Done:  E(RM062X) =  -997.691592008     A.U. after    6 cycles
 SCF Done:  E(RM062X) =  -997.691592018     A.U. after    6 cycles
 Optimization completed.
    -- Stationary point found.
 Normal termination of Gaussian 16 at Fri Dec 14 23:45:35 2018.

 ----------------------------------------------------------------------
 #N Geom=AllCheck Guess=TCheck SCRF=Check GenChk RM062X/6-311++G(d,p) F
 req
 ----------------------------------------------------------------------

 Structure from the checkpoint file:  "/scratch/ykim/gaussianScratch.6093134/Gau-17296.chk"
 -------------------
 Title Card Required
 -------------------
 Charge =  1 Multiplicity = 1

                          Input orientation:
 ---------------------------------------------------------------------
 Center     Atomic      Atomic             Coordinates (Angstroms)
 Number     Number       Type             X           Y           Z
 ---------------------------------------------------------------------
      1          6           0        3.394244    0.313796   -1.206969
      2          6           0        3.622266    1.249394   -0.007228
      3          6           0        2.828800    0.583055    1.129229
      4          6           0        1.659724   -0.029960    0.330629
      5          8           0        2.255869   -0.500820   -0.857776
      6          6           0        4.555377   -0.589812   -1.547268
      7          6           0        0.963969   -1.197449    1.005891
      8          8           0        4.906444   -1.336948   -0.387186
      9          8           0        3.041250    2.505304   -0.348010
     10          8           0        0.690224    0.964673    0.044056
     11          8           0        3.579573   -0.378546    1.828025
     12          8           0       -0.006028   -1.803452    0.147604
     13          1           0        4.262422   -1.262989   -2.358250
     14          1           0        5.394050    0.027872   -1.881891
     15          1           0        5.716269   -1.832571   -0.550524
     16          1           0        3.150514    0.914901   -2.087140
     17          1           0        4.678842    1.357717    0.247808
     18          1           0        3.209503    3.130825    0.367914
     19          1           0        2.465794    1.315106    1.851345
     20          1           0        4.105808   -0.891977    1.188598
     21          1           0        1.141800    1.769127   -0.260503
     22          1           0        0.428615   -0.844435    1.887828
     23          1           0        1.704048   -1.939654    1.300975
     24          1           0        0.443761   -2.211703   -0.604968
     25          1           0       -1.082743    0.667698   -0.387116
     26          8           0       -1.741224   -0.057507   -0.459708
     27          1           0       -1.168494   -0.873569   -0.241994
     28          1           0       -2.516201    0.076137    0.253463
     29          8           0       -3.574480    0.237410    1.166017
     30          1           0       -3.344869    0.854652    1.873371
     31          6           0       -4.845709    0.607700    0.583034
     32          1           0       -5.556715    0.743916    1.399115
     33          1           0       -4.730194    1.555304    0.047695
     34          6           0       -5.271697   -0.500331   -0.357275
     35          1           0       -5.440029   -1.413519    0.223341
     36          1           0       -4.450252   -0.700189   -1.052935
     37          6           0       -6.533264   -0.139737   -1.143999
     38          1           0       -6.330753    0.737222   -1.768209
     39          1           0       -6.758731   -0.963012   -1.827049
     40          6           0       -7.747395    0.130040   -0.256787
     41          1           0       -7.617612    1.032803    0.345587
     42          1           0       -8.648047    0.265824   -0.859991
     43          1           0       -7.924270   -0.706617    0.426089
 ---------------------------------------------------------------------

 SCF Done:  E(RM062X) =  -997.691592018     A.U. after    1 cycles

 Alpha  occ. eigenvalues --  -19.69199 -19.66773 -19.66553 -19.65185 -19.65101
 Alpha  occ. eigenvalues --  -19.64860 -19.64396 -19.63258 -10.66244 -10.60918
 Alpha  occ. eigenvalues --  -10.60614 -10.60604 -10.60341 -10.59478 -10.59391
 Alpha  occ. eigenvalues --  -10.53340 -10.53114 -10.51938  -1.23409  -1.22177
 Alpha  occ. eigenvalues --   -1.18490  -1.17751  -1.17041  -1.16867  -1.15675
 Alpha  occ. eigenvalues --   -1.14718  -0.90152  -0.89656  -0.87691  -0.82156
 Alpha  occ. eigenvalues --   -0.81770  -0.75646  -0.73659  -0.71362  -0.69315
 Alpha  occ. eigenvalues --   -0.68453  -0.66544  -0.65502  -0.65058  -0.64048
 Alpha  occ. eigenvalues --   -0.62234  -0.61404  -0.60566  -0.59507  -0.56905
 Alpha  occ. eigenvalues --   -0.55614  -0.55247  -0.54281  -0.53444  -0.52602
 Alpha  occ. eigenvalues --   -0.51970  -0.51039  -0.50772  -0.49611  -0.49290
 Alpha  occ. eigenvalues --   -0.48611  -0.47641  -0.47436  -0.45562  -0.45482
 Alpha  occ. eigenvalues --   -0.44204  -0.43823  -0.43298  -0.42680  -0.40653
 Alpha  occ. eigenvalues --   -0.39986  -0.39568  -0.39394  -0.38755  -0.38479
 Alpha  occ. eigenvalues --   -0.38026  -0.37417  -0.36377  -0.33904
 Alpha virt. eigenvalues --   -0.00965   0.00020   0.00399   0.00617   0.00917
 Alpha virt. eigenvalues --    0.01351   0.01697   0.02403   0.02569   0.03090
 Alpha virt. eigenvalues --    0.03272   0.03517   0.04140   0.04394   0.04873

 Mulliken charges:
               1
     1  C    0.383983
     2  C   -0.550729
     3  C   -0.433964
     4  C   -0.223111
     5  O   -0.059853
     6  C   -0.565268
     7  C   -0.586049
     8  O   -0.410075
     9  O   -0.311899
    10  O   -0.315400
    11  O   -0.246006
    12  O   -0.343989
    13  H    0.222273
    14  H    0.211970
    15  H    0.377386
    16  H    0.306369
    17  H    0.331014
    18  H    0.328762
    19  H    0.326354
    20  H    0.345874
    21  H    0.381344
    22  H    0.301622
    23  H    0.225308
    24  H    0.368142
    25  H    0.440376
    26  O   -0.608923
    27  H    0.474353
    28  H    0.494414
    29  O   -0.391417
    30  H    0.358686
    31  C   -0.466041
    32  H    0.206067
    33  H    0.234123
    34  C   -0.143961
    35  H    0.212504
    36  H    0.161874
    37  C   -0.288267
    38  H    0.171144
    39  H    0.187905
    40  C   -0.623876
    41  H    0.167577
    42  H    0.181940
    43  H    0.167463
 Sum of Mulliken charges =   1.00000

 Dipole moment (field-independent basis, Debye):
    X=             -0.1233    Y=              3.0615    Z=             -0.1417  Tot=              3.0672
 Quadrupole moment (field-independent basis, Debye-Ang):
   XX=            -30.1444   YY=            -93.8813   ZZ=           -105.8018
   XY=             -7.6653   XZ=            -19.2373   YZ=             11.4408

  Exact polarizability: 213.137  -4.490 194.714  -2.846   0.889 193.917
 Approx polarizability: 174.291  -3.917 169.733  -1.269   0.367 168.778

                      1                      2                      3
                      A                      A                      A
 Frequencies --     11.7592                18.7956                30.5223
 Red. masses --      4.0700                 4.5282                 3.9238
 Frc consts  --      0.0003                 0.0009                 0.0022
 IR Inten    --      2.7195                 0.4425                 3.8421

                      4                      5                      6
                      A                      A                      A
 Frequencies --     35.9978                45.5024                48.1244
 Red. masses --      2.9223                 4.8278                 4.3362
 Frc consts  --      0.0022                 0.0059                 0.0059
 IR Inten    --      0.7792                 4.0449                 2.7679

                      7                      8                      9
                      A                      A                      A
 Frequencies --     75.6837               116.2004               121.2032
 Red. masses --      5.3923                 3.5079                 2.0331
 Frc consts  --      0.0182                 0.0279                 0.0176
 IR Inten    --      2.7568                 2.1467                 1.7854

                     10                     11                     12
                      A                      A                      A
 Frequencies --    129.7476               132.6949               140.6376
 Red. masses --      3.4515                 3.3832                 3.2795
 Frc consts  --      0.0342                 0.0351                 0.0382
 IR Inten    --      0.9788                42.8477                32.5916

                     13                     14                     15
                      A                      A                      A
 Frequencies --    164.5297               180.9722               188.3164
 Red. masses --      4.0734                 1.1956                 4.3700
 Frc consts  --      0.0650                 0.0231                 0.0913
 IR Inten    --     27.2043               151.4945                44.5835

                     16                     17                     18
                      A                      A                      A
 Frequencies --    228.4577               245.0203               257.7540
 Red. masses --      1.5915                 5.1656                 4.1035
 Frc consts  --      0.0489                 0.1827                 0.1606
 IR Inten    --     21.0295                59.2116                73.0339

                     19                     20                     21
                      A                      A                      A
 Frequencies --    273.5271               287.9734               300.9710
 Red. masses --      3.3809                 1.4943                 3.5338
 Frc consts  --      0.1490                 0.0730                 0.1886
 IR Inten    --    105.4524                 2.7987                12.7100

                     22                     23                     24
                      A                      A                      A
 Frequencies --    305.1295               342.2453               343.2143
 Red. masses --      3.9206                 2.5626                 1.2504
 Frc consts  --      0.2151                 0.1769                 0.0868
 IR Inten    --     28.2645                45.1828               131.3493

                     25                     26                     27
                      A                      A                      A
 Frequencies --    362.8128               368.1853               391.4868
 Red. masses --      3.5001                 3.9819                 2.4861
 Frc consts  --      0.2715                 0.3180                 0.2245
 IR Inten    --     13.0899               290.9915                34.6160

                     28                     29                     30
                      A                      A                      A
 Frequencies --    410.9186               429.0090               447.3716
 Red. masses --      1.2199                 3.5250                 2.0329
 Frc consts  --      0.1214                 0.3822                 0.2397
 IR Inten    --     38.2647                96.6973               109.9603

                     31                     32                     33
                      A                      A                      A
 Frequencies --    464.9480               491.4260               498.1234
 Red. masses --      2.0009                 2.3039                 1.7670
 Frc consts  --      0.2549                 0.3278                 0.2583
 IR Inten    --    140.0041                 5.8383                21.9245

                     34                     35                     36
                      A                      A                      A
 Frequencies --    518.3394               544.0603               581.8859
 Red. masses --      2.3485                 1.2213                 1.1020
 Frc consts  --      0.3718                 0.2130                 0.2198
 IR Inten    --      3.9008               222.1186               205.8074

                     37                     38                     39
                      A                      A                      A
 Frequencies --    608.1784               643.1212               669.5831
 Red. masses --      5.2992                 4.0613                 1.1122
 Frc consts  --      1.1548                 0.9897                 0.2938
 IR Inten    --     32.2209                94.7824                74.9574

                     40                     41                     42
                      A                      A                      A
 Frequencies --    739.9231               751.5714               756.9312
 Red. masses --      4.9206                 1.1728                 6.0048
 Frc consts  --      1.5872                 0.3903                 2.0270
 IR Inten    --     13.6766                 8.6600                59.8870

                     43                     44                     45
                      A                      A                      A
 Frequencies --    810.1852               871.8788               895.6671
 Red. masses --      1.1685                 5.2418                 2.1836
 Frc consts  --      0.4519                 2.3477                 1.0321
 IR Inten    --      3.1949                61.6168                 6.6219

                     46                     47                     48
                      A                      A                      A
 Frequencies --    904.9819               915.8914               953.9938
 Red. masses --      2.0046                 2.8235                 1.8110
 Frc consts  --      0.9673                 1.3955                 0.9711
 IR Inten    --     39.2649                76.4445                 7.5514

                     49                     50                     51
                      A                      A                      A
 Frequencies --    965.4606               972.7540               988.8857
 Red. masses --      1.3625                 1.8122                 1.4071
 Frc consts  --      0.7483                 1.0103                 0.8107
 IR Inten    --     13.1102                57.5700               138.1889

                     52                     53                     54
                      A                      A                      A
 Frequencies --   1014.1319              1035.1630              1044.0797
 Red. masses --      2.4301                 2.4759                 3.5391
 Frc consts  --      1.4725                 1.5632                 2.2731
 IR Inten    --     25.2607                92.1987               286.5815

                     55                     56                     57
                      A                      A                      A
 Frequencies --   1060.8392              1089.8960              1100.5147
 Red. masses --      2.3862                 4.5203                 1.8637
 Frc consts  --      1.5822                 3.1637                 1.3299
 IR Inten    --     47.8517                55.6866               116.1701

                     58                     59                     60
                      A                      A                      A
 Frequencies --   1104.5814              1108.9014              1122.0913
 Red. masses --      1.8538                 2.2170                 3.1543
 Frc consts  --      1.3326                 1.6062                 2.3399
 IR Inten    --     34.1124                91.4448               194.0664

                     61                     62                     63
                      A                      A                      A
 Frequencies --   1132.6550              1144.3695              1172.6907
 Red. masses --      3.2648                 1.7181                 2.9900
 Frc consts  --      2.4677                 1.3256                 2.4226
 IR Inten    --     23.1281                71.0376               205.8752

                     64                     65                     66
                      A                      A                      A
 Frequencies --   1177.7265              1201.1362              1215.5118
 Red. masses --      1.8743                 1.1812                 2.6696
 Frc consts  --      1.5317                 1.0041                 2.3239
 IR Inten    --      6.6698                 3.3563               111.9800

                     67                     68                     69
                      A                      A                      A
 Frequencies --   1226.7776              1234.9360              1245.9341
 Red. masses --      1.2817                 1.4344                 1.3905
 Frc consts  --      1.1365                 1.2889                 1.2718
 IR Inten    --     15.2592               125.8868               210.5414

                     70                     71                     72
                      A                      A                      A
 Frequencies --   1259.1813              1261.8783              1280.2161
 Red. masses --      1.2743                 1.3037                 1.2491
 Frc consts  --      1.1904                 1.2231                 1.2062
 IR Inten    --     11.6758                 2.5689                41.7033

                     73                     74                     75
                      A                      A                      A
 Frequencies --   1302.6145              1312.7965              1326.3810
 Red. masses --      1.2107                 1.2200                 1.0997
 Frc consts  --      1.2104                 1.2388                 1.1399
 IR Inten    --     16.0433                16.5546                12.7439

                     76                     77                     78
                      A                      A                      A
 Frequencies --   1354.5537              1358.9226              1367.9299
 Red. masses --      1.3194                 1.3252                 1.2692
 Frc consts  --      1.4263                 1.4419                 1.3993
 IR Inten    --     21.5123                45.0347                20.9331

                     79                     80                     81
                      A                      A                      A
 Frequencies --   1369.8340              1373.8416              1375.8003
 Red. masses --      1.3031                 1.4490                 1.4141
 Frc consts  --      1.4407                 1.6114                 1.5770
 IR Inten    --    227.1967                51.7165               154.2688

                     82                     83                     84
                      A                      A                      A
 Frequencies --   1384.1957              1409.8505              1410.9645
 Red. masses --      1.3634                 1.2406                 1.3142
 Frc consts  --      1.5391                 1.4528                 1.5415
 IR Inten    --     97.9089               291.6683                15.6559

                     85                     86                     87
                      A                      A                      A
 Frequencies --   1440.3676              1451.7765              1456.7691
 Red. masses --      1.5807                 1.3509                 1.5881
 Frc consts  --      1.9322                 1.6776                 1.9856
 IR Inten    --      5.3556                11.4463                 2.5719

                     88                     89                     90
                      A                      A                      A
 Frequencies --   1472.9498              1474.9507              1482.0491
 Red. masses --      1.0705                 1.9030                 1.1335
 Frc consts  --      1.3684                 2.4392                 1.4669
 IR Inten    --      2.8536                24.1927                 7.4359

                     91                     92                     93
                      A                      A                      A
 Frequencies --   1482.5175              1485.8064              1490.9638
 Red. masses --      1.2603                 1.0808                 1.0672
 Frc consts  --      1.6320                 1.4058                 1.3977
 IR Inten    --     88.4182                 6.6511                14.8720

                     94                     95                     96
                      A                      A                      A
 Frequencies --   1499.0808              1503.7140              1517.8429
 Red. masses --      1.0791                 1.0831                 1.0831
 Frc consts  --      1.4287                 1.4429                 1.4701
 IR Inten    --     11.4919                10.8171                 8.7313

                     97                     98                     99
                      A                      A                      A
 Frequencies --   1638.4803              1681.3632              2088.5093
 Red. masses --      1.0456                 1.0492                 1.1407
 Frc consts  --      1.6538                 1.7476                 2.9316
 IR Inten    --    130.8585               158.6424              4725.5744

                    100                    101                    102
                      A                      A                      A
 Frequencies --   2770.5484              3053.0281              3055.6990
 Red. masses --      1.0731                 1.0403                 1.0605
 Frc consts  --      4.8530                 5.7128                 5.8343
 IR Inten    --   1788.5221                25.8195                12.0650

                    103                    104                    105
                      A                      A                      A
 Frequencies --   3057.4128              3067.0145              3071.4699
 Red. masses --      1.0608                 1.0579                 1.0627
 Frc consts  --      5.8422                 5.8632                 5.9070
 IR Inten    --     45.3868                37.0791                50.0183

                    106                    107                    108
                      A                      A                      A
 Frequencies --   3095.7663              3100.6545              3101.0029
 Red. masses --      1.0991                 1.0862                 1.1037
 Frc consts  --      6.2059                 6.1526                 6.2534
 IR Inten    --     17.6985                27.3330                22.7060

                    109                    110                    111
                      A                      A                      A
 Frequencies --   3112.6678              3117.1642              3119.1311
 Red. masses --      1.0902                 1.1069                 1.0594
 Frc consts  --      6.2234                 6.3370                 6.0727
 IR Inten    --     13.5606                33.8337                10.2140

                    112                    113                    114
                      A                      A                      A
 Frequencies --   3123.4234              3130.0501              3136.4625
 Red. masses --      1.1027                 1.1028                 1.0891
 Frc consts  --      6.3381                 6.3660                 6.3125
 IR Inten    --     73.8883                50.1246                19.9306

                    115                    116                    117
                      A                      A                      A
 Frequencies --   3141.0350              3180.0592              3575.6603
 Red. masses --      1.1053                 1.1108                 1.0612
 Frc consts  --      6.4252                 6.6184                 7.9937
 IR Inten    --     37.2159                 7.3946               794.3480

                    118                    119                    120
                      A                      A                      A
 Frequencies --   3641.3761              3722.7206              3823.4391
 Red. masses --      1.0676                 1.0669                 1.0666
 Frc consts  --      8.3403                 8.7113                 9.1866
 IR Inten    --    644.0578               302.6546               181.4478

                    121                    122                    123
                      A                      A                      A
 Frequencies --   3832.4202              3840.2313              3869.9742
 Red. masses --      1.0669                 1.0670                 1.0674
 Frc consts  --      9.2325                 9.2711                 9.4192
 IR Inten    --    198.3755               147.8327               175.9724

 - Thermochemistry -
 -------------------
 Temperature   443.150 Kelvin.  Pressure   1.00000 Atm.
 Atom     1 has atomic number  6 and mass  12.00000

 Molecular mass:   273.15494 amu.
 Principal axes and moments of inertia in atomic units:
                           1         2         3
     Eigenvalues --  1896.30669********************
           X            1.00000  -0.00143   0.00097
           Y            0.00148   0.99827  -0.05870
           Z           -0.00088   0.05870   0.99828
 This molecule is an asymmetric top.
 Rotational symmetry number  1.
 Warning -- assumption of classical behavior for rotation
           may cause significant error
 Rotational temperatures (Kelvin)      0.04568     0.00551     0.00543
 Rotational constants (GHZ):           0.95171     0.11490     0.11313
 Zero-point vibrational energy     983743.1 (Joules/Mol)
                                  235.12024 (Kcal/Mol)
 Warning -- explicit consideration of  47 degrees of freedom as
           vibrations may cause significant error
 Vibrational temperatures:     16.92    27.04    43.91    51.79    65.47
          (Kelvin)             69.24   108.89   167.19   174.38   186.68
                              190.92   202.35   236.72   260.38   270.95
                              328.70   352.53   370.85   393.54   414.33
                              433.03   439.01   492.41   493.81   522.01
                              529.74   563.26   591.22   617.25   643.67
                              668.96   707.05   716.69   745.77   782.78
                              837.20   875.03   925.31   963.38  1064.58
                             1081.34  1089.06  1165.68  1254.44  1288.67
                             1302.07  1317.76  1372.58  1389.08  1399.58
                             1422.79  1459.11  1489.37  1502.20  1526.31
                             1568.12  1583.40  1589.25  1595.46  1614.44
                             1629.64  1646.49  1687.24  1694.49  1728.17
                             1748.85  1765.06  1776.80  1792.62  1811.68
                             1815.56  1841.95  1874.17  1888.82  1908.37
                             1948.90  1955.19  1968.15  1970.89  1976.65
                             1979.47  1991.55  2028.46  2030.06  2072.37
                             2088.78  2095.97  2119.25  2122.13  2132.34
                             2133.01  2137.74  2145.16  2156.84  2163.51
                             2183.84  2357.41  2419.11  3004.90  3986.20
                             4392.63  4396.47  4398.94  4412.75  4419.16
                             4454.12  4461.15  4461.65  4478.43  4484.90
                             4487.73  4493.91  4503.44  4512.67  4519.25
                             4575.40  5144.58  5239.13  5356.16  5501.08
                             5514.00  5525.24  5568.03

 Zero-point correction=                           0.374688 (Hartree/Particle)
 Thermal correction to Energy=                    0.420553
 Thermal correction to Enthalpy=                  0.421956
 Thermal correction to Gibbs Free Energy=         0.276284
 Sum of electronic and zero-point Energies=           -997.316904
 Sum of electronic and thermal Energies=              -997.271039
 Sum of electronic and thermal Enthalpies=            -997.269636
 Sum of electronic and thermal Free Energies=         -997.415308

                     E (Thermal)             CV                S
                      KCal/Mol        Cal/Mol-Kelvin    Cal/Mol-Kelvin
 Total                  263.901            114.490            206.275
 Electronic               0.000              0.000              0.000
 Translational            1.321              2.981             44.682
 Rotational               1.321              2.981             35.699
 Vibrational            261.259            108.529            125.893
 Vibration     1          0.881              1.987              8.476
 Vibration     2          0.881              1.987              7.545
 Vibration     3          0.881              1.986              6.582
 Vibration     4          0.882              1.985              6.254
 Vibration     5          0.882              1.984              5.789
 Vibration     6          0.882              1.983              5.678
 Vibration     7          0.885              1.977              4.781
 Vibration     8          0.891              1.964              3.936
 Vibration     9          0.892              1.962              3.853
 Vibration    10          0.894              1.958              3.720
 Vibration    11          0.894              1.957              3.676
 Vibration    12          0.896              1.953              3.562
 Vibration    13          0.901              1.941              3.257
 Vibration    14          0.906              1.931              3.072
 Vibration    15          0.908              1.926              2.996
 Vibration    16          0.921              1.899              2.626
 Vibration    17          0.927              1.886              2.493
 Vibration    18          0.931              1.875              2.398
 Vibration    19          0.938              1.862              2.287
 Vibration    20          0.944              1.849              2.192
 Vibration    21          0.950              1.836              2.110
 Vibration    22          0.952              1.832              2.085
 Vibration    23          0.969              1.795              1.877
 Vibration    24          0.970              1.794              1.872
 Vibration    25          0.980              1.773              1.773
 Vibration    26          0.983              1.767              1.747
 Vibration    27          0.996              1.740              1.639
 Vibration    28          1.008              1.717              1.555
 Vibration    29          1.019              1.695              1.482
 Vibration    30          1.030              1.672              1.411
 Vibration    31          1.042              1.649              1.347
 Vibration    32          1.060              1.614              1.257
 Vibration    33          1.065              1.605              1.235
 Vibration    34          1.079              1.578              1.172
 Vibration    35          1.099              1.542              1.096
 Vibration    36          1.128              1.488              0.994
 Vibration    37          1.150              1.450              0.930
 Vibration    38          1.180              1.399              0.850
 Vibration    39          1.203              1.360              0.794
 Vibration    40          1.268              1.255              0.664
 Vibration    41          1.280              1.237              0.644
 Vibration    42          1.285              1.229              0.635
 Vibration    43          1.338              1.150              0.554
 Vibration    44          1.403              1.060              0.473
 Vibration    45          1.428              1.026              0.445
 Vibration    46          1.438              1.013              0.435
 Vibration    47          1.450              0.998              0.423

                           ! Non-Optimized Parameters !
 Normal termination of Gaussian 16 at Sat Dec 15 00:25:07 2018.
