 Gaussian 16, Revision A.03,
 Gaussian 16:  ES64L-G16RevA.03 25-Dec-2016

 ----------------------------------------------------------------------
 # opt freq m062x/6-311++g(d,p) scrf=(solvent=dmso,smd) scf=(xqc,maxcon
 ventionalcycles=400) temperature=443.15
 ----------------------------------------------------------------------

 -------------------
 Title Card Required
 -------------------
 Symbolic Z-matrix:
 Charge =  1 Multiplicity = 1

 SCF Done:  E(RM062X) =  -1317.11295511     A.U. after   14 cycles
 SCF Done:  E(RM062X) =  -1317.12544742     A.U. after   13 cycles
 SCF Done:  E(RM062X) =  -1317.14286461     A.U. after   14 cycles
 SCF Done:  E(RM062X) =  -1317.15475993     A.U. after   15 cycles
 SCF Done:  E(RM062X) =  -1317.17313915     A.U. after   13 cycles
 SCF Done:  E(RM062X) =  -1317.18012849     A.U. after   14 cycles
 SCF Done:  E(RM062X) =  -1317.20737139     A.U. after   13 cycles
 SCF Done:  E(RM062X) =  -1317.21363124     A.U. after   12 cycles
 SCF Done:  E(RM062X) =  -1317.21744254     A.U. after   13 cycles
 SCF Done:  E(RM062X) =  -1317.21416743     A.U. after   14 cycles
 SCF Done:  E(RM062X) =  -1317.23001151     A.U. after    9 cycles
 SCF Done:  E(RM062X) =  -1317.23001185     A.U. after    9 cycles
 SCF Done:  E(RM062X) =  -1317.23001089     A.U. after    9 cycles
 SCF Done:  E(RM062X) =  -1317.23001218     A.U. after    9 cycles
 SCF Done:  E(RM062X) =  -1317.23001235     A.U. after    7 cycles
 SCF Done:  E(RM062X) =  -1317.23001251     A.U. after    8 cycles
 SCF Done:  E(RM062X) =  -1317.23001257     A.U. after    8 cycles
 SCF Done:  E(RM062X) =  -1317.23001263     A.U. after    7 cycles
 SCF Done:  E(RM062X) =  -1317.23001274     A.U. after    7 cycles
 Optimization completed.
    -- Stationary point found.
 Normal termination of Gaussian 16 at Mon Dec 10 19:34:47 2018.

 ----------------------------------------------------------------------
 #N Geom=AllCheck Guess=TCheck SCRF=Check GenChk RM062X/6-311++G(d,p) F
 req
 ----------------------------------------------------------------------

 Structure from the checkpoint file:  "/scratch/ykim/gaussianScratch.6076992/Gau-14562.chk"
 -------------------
 Title Card Required
 -------------------
 Charge =  1 Multiplicity = 1

                         Standard orientation:
 ---------------------------------------------------------------------
 Center     Atomic      Atomic             Coordinates (Angstroms)
 Number     Number       Type             X           Y           Z
 ---------------------------------------------------------------------
      1          6           0       -3.178637    0.452994    1.081441
      2          6           0       -3.297847    1.286239   -0.208779
      3          6           0       -2.508404    0.460567   -1.240991
      4          6           0       -1.414508   -0.134466   -0.329903
      5          8           0       -2.107812   -0.480146    0.847827
      6          6           0       -4.424581   -0.309768    1.464967
      7          6           0       -0.736831   -1.389142   -0.847362
      8          8           0       -4.830021   -1.109824    0.356800
      9          8           0       -2.648065    2.533066    0.041151
     10          8           0       -0.418985    0.839108   -0.060240
     11          8           0       -3.294375   -0.521742   -1.858878
     12          8           0        0.079908   -1.990082    0.154703
     13          1           0       -4.208618   -0.940896    2.331569
     14          1           0       -5.204753    0.408998    1.732505
     15          1           0       -5.684741   -1.512492    0.544022
     16          1           0       -2.911018    1.115531    1.909520
     17          1           0       -4.334313    1.438110   -0.516886
     18          1           0       -2.792257    3.112777   -0.717716
     19          1           0       -2.075076    1.088385   -2.020924
     20          1           0       -3.883223   -0.910256   -1.189500
     21          1           0       -0.853938    1.686828    0.122702
     22          1           0       -0.086248   -1.135880   -1.685654
     23          1           0       -1.499025   -2.091176   -1.185878
     24          1           0       -0.477164   -2.164084    0.924576
     25          1           0        1.356860    0.451089    0.221832
     26          8           0        2.085956   -0.186769    0.338389
     27          1           0        1.593417   -1.031767    0.365757
     28          1           0        3.180070   -0.093957   -0.590860
     29          8           0        4.035476   -0.017903   -1.184239
     30          6           0        5.011767    1.556746    0.750481
     31          1           0        4.921925    2.430563    0.106061
     32          1           0        4.098850    1.374314    1.317307
     33          1           0        5.869958    1.668868    1.415718
     34          6           0        5.265803   -1.179751    0.890693
     35          1           0        4.346563   -1.091624    1.469390
     36          1           0        5.308326   -2.116119    0.335271
     37          1           0        6.143686   -1.086220    1.532471
     38         16           0        5.354593    0.150801   -0.304292
 ---------------------------------------------------------------------

 SCF Done:  E(RM062X) =  -1317.23001274     A.U. after    1 cycles

 The electronic state is 1-A.
 Alpha  occ. eigenvalues --  -90.04421 -19.67529 -19.64986 -19.64721 -19.64629
 Alpha  occ. eigenvalues --  -19.64553 -19.64514 -19.64354 -19.62413 -10.65543
 Alpha  occ. eigenvalues --  -10.60712 -10.60317 -10.60097 -10.59409 -10.59271
 Alpha  occ. eigenvalues --  -10.58590 -10.58578  -8.40261  -6.32400  -6.32136
 Alpha  occ. eigenvalues --   -6.31828  -1.22724  -1.21474  -1.17530  -1.16863
 Alpha  occ. eigenvalues --   -1.16430  -1.15598  -1.15199  -1.14138  -0.95026
 Alpha  occ. eigenvalues --   -0.89297  -0.87070  -0.83719  -0.81537  -0.75532
 Alpha  occ. eigenvalues --   -0.75145  -0.70812  -0.67766  -0.65020  -0.64237
 Alpha  occ. eigenvalues --   -0.63746  -0.63428  -0.61179  -0.60369  -0.59042
 Alpha  occ. eigenvalues --   -0.57862  -0.56006  -0.55930  -0.54861  -0.53969
 Alpha  occ. eigenvalues --   -0.53588  -0.52561  -0.51534  -0.50642  -0.50313
 Alpha  occ. eigenvalues --   -0.50177  -0.48707  -0.48414  -0.47838  -0.47732
 Alpha  occ. eigenvalues --   -0.47086  -0.45065  -0.43717  -0.43080  -0.42458
 Alpha  occ. eigenvalues --   -0.42274  -0.41869  -0.40004  -0.38915  -0.38534
 Alpha  occ. eigenvalues --   -0.37623  -0.37131  -0.35880  -0.33174
 Alpha virt. eigenvalues --   -0.00800   0.00093   0.00302   0.00343   0.01143
 Alpha virt. eigenvalues --    0.01215   0.01492   0.02618   0.02789   0.02999
 Alpha virt. eigenvalues --    0.03128   0.03347   0.03932   0.04587   0.04678

 Mulliken charges:
               1
     1  C    0.280176
     2  C   -0.563383
     3  C   -0.494545
     4  C   -0.090682
     5  O   -0.021850
     6  C   -0.536296
     7  C   -0.656827
     8  O   -0.382429
     9  O   -0.285103
    10  O   -0.299667
    11  O   -0.187319
    12  O   -0.309236
    13  H    0.223914
    14  H    0.215315
    15  H    0.358738
    16  H    0.301963
    17  H    0.330067
    18  H    0.312051
    19  H    0.323112
    20  H    0.325417
    21  H    0.364039
    22  H    0.289233
    23  H    0.215773
    24  H    0.322512
    25  H    0.371307
    26  O   -0.667914
    27  H    0.344631
    28  H    0.439031
    29  O   -0.326621
    30  C   -0.636912
    31  H    0.257836
    32  H    0.256083
    33  H    0.239452
    34  C   -0.640866
    35  H    0.255358
    36  H    0.260360
    37  H    0.243666
    38  S    0.569616
 Sum of Mulliken charges =   1.00000

 Dipole moment (field-independent basis, Debye):
    X=              9.0863    Y=              2.7206    Z=              5.3910  Tot=             10.9099
 Quadrupole moment (field-independent basis, Debye-Ang):
   XX=             25.0992   YY=            -92.2890   ZZ=           -107.0935
   XY=              0.6267   XZ=              7.0971   YZ=             -7.5979

  Exact polarizability: 191.414   0.205 184.331  -1.566  -0.068 176.907
 Approx polarizability: 166.096   2.533 166.548   1.834   0.145 164.894

                      1                      2                      3
                      A                      A                      A
 Frequencies --     18.4952                26.1993                42.2016
 Red. masses --      5.9978                 5.5393                 7.1772
 Frc consts  --      0.0012                 0.0022                 0.0075
 IR Inten    --      3.5851                 3.1700                 3.6015

                      4                      5                      6
                      A                      A                      A
 Frequencies --     49.3531                57.7298                65.4570
 Red. masses --      4.1480                 3.9470                 4.2994
 Frc consts  --      0.0060                 0.0078                 0.0109
 IR Inten    --      4.4006                 7.5782                 7.2901

                      7                      8                      9
                      A                      A                      A
 Frequencies --     77.1412               107.8585               124.6097
 Red. masses --      4.3353                 2.0848                 4.1522
 Frc consts  --      0.0152                 0.0143                 0.0380
 IR Inten    --      3.3264               122.2224                 9.5581

                     10                     11                     12
                      A                      A                      A
 Frequencies --    143.7721               156.0694               167.6960
 Red. masses --      3.1497                 1.9720                 3.6986
 Frc consts  --      0.0384                 0.0283                 0.0613
 IR Inten    --     52.0902                43.1632                41.9649

                     13                     14                     15
                      A                      A                      A
 Frequencies --    184.1300               185.7111               209.5615
 Red. masses --      4.8312                 1.1724                 3.7675
 Frc consts  --      0.0965                 0.0238                 0.0975
 IR Inten    --      7.8542                 2.0416                25.2806

                     16                     17                     18
                      A                      A                      A
 Frequencies --    232.5893               253.1040               271.3899
 Red. masses --      1.0787                 5.6761                 3.9049
 Frc consts  --      0.0344                 0.2142                 0.1695
 IR Inten    --      0.7670                 1.1158                 5.6730

                     19                     20                     21
                      A                      A                      A
 Frequencies --    289.4186               297.9206               299.3512
 Red. masses --      2.9300                 3.8223                 3.2700
 Frc consts  --      0.1446                 0.1999                 0.1726
 IR Inten    --      1.9944                34.6401                 0.4900

                     22                     23                     24
                      A                      A                      A
 Frequencies --    312.1207               334.6012               354.5528
 Red. masses --      3.8706                 2.5266                 1.6129
 Frc consts  --      0.2222                 0.1667                 0.1195
 IR Inten    --     21.3953                15.5468                72.9696

                     25                     26                     27
                      A                      A                      A
 Frequencies --    363.7060               373.8968               413.9611
 Red. masses --      2.2889                 1.7593                 2.2096
 Frc consts  --      0.1784                 0.1449                 0.2231
 IR Inten    --     53.5909                67.9782               152.6823

                     28                     29                     30
                      A                      A                      A
 Frequencies --    430.4206               439.0675               443.4959
 Red. masses --      1.2844                 2.3317                 4.4692
 Frc consts  --      0.1402                 0.2648                 0.5179
 IR Inten    --      3.0915                41.4287                14.3512

                     31                     32                     33
                      A                      A                      A
 Frequencies --    465.9325               510.5523               559.4822
 Red. masses --      4.8081                 3.5830                 1.2107
 Frc consts  --      0.6150                 0.5503                 0.2233
 IR Inten    --      8.2713                 8.7864               202.6689

                     34                     35                     36
                      A                      A                      A
 Frequencies --    583.9283               587.9706               609.7625
 Red. masses --      1.1092                 1.0624                 4.9749
 Frc consts  --      0.2228                 0.2164                 1.0898
 IR Inten    --    160.5638                10.9719                22.5213

                     37                     38                     39
                      A                      A                      A
 Frequencies --    643.0777               690.8373               737.0295
 Red. masses --      3.9902                 4.9298                 4.7251
 Frc consts  --      0.9722                 1.3862                 1.5123
 IR Inten    --     59.1011                 0.7750                 8.9561

                     40                     41                     42
                      A                      A                      A
 Frequencies --    739.2745               752.7451               821.3311
 Red. masses --      4.9627                 5.7502                 1.1166
 Frc consts  --      1.5980                 1.9197                 0.4438
 IR Inten    --      3.6972                45.3645               228.1144

                     43                     44                     45
                      A                      A                      A
 Frequencies --    864.6162               895.1016               905.0887
 Red. masses --      5.0843                 8.7214                 2.4167
 Frc consts  --      2.2394                 4.1170                 1.1664
 IR Inten    --     85.7898               111.9900                51.2371

                     46                     47                     48
                      A                      A                      A
 Frequencies --    917.3997               953.2807               956.9008
 Red. masses --      2.9025                 1.1995                 2.3111
 Frc consts  --      1.4392                 0.6422                 1.2468
 IR Inten    --     83.0904                 5.8909                97.7508

                     49                     50                     51
                      A                      A                      A
 Frequencies --    989.0901              1011.6931              1033.3042
 Red. masses --      1.3080                 2.3109                 1.4597
 Frc consts  --      0.7539                 1.3936                 0.9183
 IR Inten    --      7.7664                23.8342               105.5417

                     52                     53                     54
                      A                      A                      A
 Frequencies --   1035.6095              1049.3604              1071.2089
 Red. masses --      2.4413                 2.4742                 1.3471
 Frc consts  --      1.5426                 1.6052                 0.9108
 IR Inten    --     55.6912                93.5590                22.4093

                     55                     56                     57
                      A                      A                      A
 Frequencies --   1096.2317              1102.3904              1105.0147
 Red. masses --      5.1085                 3.6119                 3.5243
 Frc consts  --      3.6170                 2.5861                 2.5355
 IR Inten    --     73.8337               296.5037               124.9146

                     58                     59                     60
                      A                      A                      A
 Frequencies --   1124.6406              1133.8656              1154.2751
 Red. masses --      2.6211                 2.8432                 1.7914
 Frc consts  --      1.9533                 2.1537                 1.4063
 IR Inten    --     29.7970                79.2064                57.7214

                     61                     62                     63
                      A                      A                      A
 Frequencies --   1199.2436              1202.8151              1215.4517
 Red. masses --      1.9469                 1.5350                 1.0494
 Frc consts  --      1.6497                 1.3084                 0.9134
 IR Inten    --     76.5843                51.9307               206.2223

                     64                     65                     66
                      A                      A                      A
 Frequencies --   1228.7455              1245.3680              1262.9610
 Red. masses --      1.3378                 1.3974                 1.3869
 Frc consts  --      1.1901                 1.2769                 1.3034
 IR Inten    --    113.6616                97.5433                13.7895

                     67                     68                     69
                      A                      A                      A
 Frequencies --   1282.2476              1313.6806              1355.0547
 Red. masses --      1.1718                 1.2059                 1.3830
 Frc consts  --      1.1351                 1.2262                 1.4961
 IR Inten    --     44.1604                14.5760                 9.9961

                     70                     71                     72
                      A                      A                      A
 Frequencies --   1358.4441              1360.0333              1373.0356
 Red. masses --      1.1657                 1.4912                 1.2732
 Frc consts  --      1.2674                 1.6252                 1.4142
 IR Inten    --      2.0014                28.3607                 5.9483

                     73                     74                     75
                      A                      A                      A
 Frequencies --   1378.6890              1381.9775              1413.0754
 Red. masses --      1.1657                 1.3373                 1.2839
 Frc consts  --      1.3055                 1.5048                 1.5105
 IR Inten    --     24.1476                34.6941               124.7807

                     76                     77                     78
                      A                      A                      A
 Frequencies --   1432.1157              1434.8269              1435.1164
 Red. masses --      1.0459                 1.0471                 1.0457
 Frc consts  --      1.2639                 1.2701                 1.2689
 IR Inten    --     22.0060                11.4173                43.2326

                     79                     80                     81
                      A                      A                      A
 Frequencies --   1442.6379              1446.3803              1461.1883
 Red. masses --      1.5599                 1.0424                 1.5759
 Frc consts  --      1.9127                 1.2848                 1.9824
 IR Inten    --      3.6236                16.5560                 1.3845

                     82                     83                     84
                      A                      A                      A
 Frequencies --   1467.4792              1483.3590              1486.7511
 Red. masses --      1.0710                 1.8812                 1.2145
 Frc consts  --      1.3589                 2.4387                 1.5817
 IR Inten    --    174.6505                26.4891                78.5660

                     85                     86                     87
                      A                      A                      A
 Frequencies --   1501.1091              1507.5691              1683.3517
 Red. masses --      1.0817                 1.0834                 1.0820
 Frc consts  --      1.4361                 1.4508                 1.8064
 IR Inten    --      8.4188                11.3985               375.9365

                     88                     89                     90
                      A                      A                      A
 Frequencies --   2330.8656              3068.2678              3082.1481
 Red. masses --      1.0894                 1.0583                 1.0288
 Frc consts  --      3.4872                 5.8701                 5.7581
 IR Inten    --   4150.5494                32.8969                 3.0247

                     91                     92                     93
                      A                      A                      A
 Frequencies --   3082.4190              3093.9839              3107.2104
 Red. masses --      1.0291                 1.0858                 1.0591
 Frc consts  --      5.7607                 6.1240                 6.0247
 IR Inten    --      3.6036                26.7558                14.5550

                     94                     95                     96
                      A                      A                      A
 Frequencies --   3116.3109              3119.2784              3128.9700
 Red. masses --      1.0919                 1.1050                 1.0890
 Frc consts  --      6.2476                 6.3348                 6.2820
 IR Inten    --     10.7741                30.1695                17.6814

                     97                     98                     99
                      A                      A                      A
 Frequencies --   3163.4857              3185.1982              3187.6255
 Red. masses --      1.1100                 1.1063                 1.1071
 Frc consts  --      6.5451                 6.6131                 6.6278
 IR Inten    --      8.5281                 1.7848                16.4566

                    100                    101                    102
                      A                      A                      A
 Frequencies --   3199.5789              3202.0932              3587.6838
 Red. masses --      1.1097                 1.1097                 1.0674
 Frc consts  --      6.6934                 6.7038                 8.0946
 IR Inten    --      6.6035                 6.9729               664.3972

                    103                    104                    105
                      A                      A                      A
 Frequencies --   3659.5325              3673.9719              3737.9309
 Red. masses --      1.0608                 1.0671                 1.0663
 Frc consts  --      8.3706                 8.4862                 8.7778
 IR Inten    --    881.9514               544.6384               231.8163

                    106                    107                    108
                      A                      A                      A
 Frequencies --   3815.3991              3816.1273              3851.6249
 Red. masses --      1.0665                 1.0661                 1.0669
 Frc consts  --      9.1477                 9.1471                 9.3256
 IR Inten    --    187.1902                99.7290               168.9816

 - Thermochemistry -
 -------------------
 Temperature   443.150 Kelvin.  Pressure   1.00000 Atm.
 Atom     1 has atomic number  6 and mass  12.00000

 Molecular mass:   277.09571 amu.
 Principal axes and moments of inertia in atomic units:
                           1         2         3
     Eigenvalues --  2022.19412********************
           X            0.99999  -0.00001   0.00534
           Y            0.00006   0.99995  -0.01028
           Z           -0.00534   0.01028   0.99993
 This molecule is an asymmetric top.
 Rotational symmetry number  1.
 Warning -- assumption of classical behavior for rotation
           may cause significant error
 Rotational temperatures (Kelvin)      0.04283     0.00650     0.00627
 Rotational constants (GHZ):           0.89247     0.13539     0.13057
 Zero-point vibrational energy     833731.3 (Joules/Mol)
                                  199.26657 (Kcal/Mol)
 Warning -- explicit consideration of  46 degrees of freedom as
           vibrations may cause significant error
 Vibrational temperatures:     26.61    37.69    60.72    71.01    83.06
          (Kelvin)             94.18   110.99   155.18   179.29   206.86
                              224.55   241.28   264.92   267.20   301.51
                              334.64   364.16   390.47   416.41   428.64
                              430.70   449.07   481.42   510.12   523.29
                              537.95   595.60   619.28   631.72   638.09
                              670.37   734.57   804.97   840.14   845.96
                              877.31   925.25   993.96  1060.42  1063.65
                             1083.03  1181.71  1243.99  1287.85  1302.22
                             1319.93  1371.56  1376.77  1423.08  1455.60
                             1486.69  1490.01  1509.80  1541.23  1577.23
                             1586.09  1589.87  1618.11  1631.38  1660.74
                             1725.44  1730.58  1748.76  1767.89  1791.81
                             1817.12  1844.87  1890.09  1949.62  1954.50
                             1956.78  1975.49  1983.63  1988.36  2033.10
                             2060.50  2064.40  2064.81  2075.63  2081.02
                             2102.32  2111.38  2134.22  2139.10  2159.76
                             2169.06  2421.97  3353.60  4414.55  4434.52
                             4434.91  4451.55  4470.58  4483.68  4487.95
                             4501.89  4551.55  4582.79  4586.28  4603.48
                             4607.10  5161.88  5265.25  5286.03  5378.05
                             5489.51  5490.56  5541.63

 Zero-point correction=                           0.317551 (Hartree/Particle)
 Thermal correction to Energy=                    0.361320
 Thermal correction to Enthalpy=                  0.362723
 Thermal correction to Gibbs Free Energy=         0.223522
 Sum of electronic and zero-point Energies=          -1316.912461
 Sum of electronic and thermal Energies=             -1316.868693
 Sum of electronic and thermal Enthalpies=           -1316.867289
 Sum of electronic and thermal Free Energies=        -1317.006491

                     E (Thermal)             CV                S
                      KCal/Mol        Cal/Mol-Kelvin    Cal/Mol-Kelvin
 Total                  226.732            107.232            197.112
 Electronic               0.000              0.000              0.000
 Translational            1.321              2.981             44.725
 Rotational               1.321              2.981             35.457
 Vibrational            224.090            101.270            116.930
 Vibration     1          0.881              1.987              7.577
 Vibration     2          0.881              1.986              6.885
 Vibration     3          0.882              1.984              5.939
 Vibration     4          0.883              1.983              5.628
 Vibration     5          0.883              1.981              5.317
 Vibration     6          0.884              1.980              5.069
 Vibration     7          0.885              1.977              4.744
 Vibration     8          0.890              1.967              4.082
 Vibration     9          0.893              1.960              3.799
 Vibration    10          0.897              1.952              3.519
 Vibration    11          0.899              1.945              3.359
 Vibration    12          0.902              1.939              3.220
 Vibration    13          0.907              1.929              3.039
 Vibration    14          0.907              1.928              3.022
 Vibration    15          0.914              1.912              2.790
 Vibration    16          0.922              1.895              2.592
 Vibration    17          0.930              1.879              2.432
 Vibration    18          0.937              1.863              2.302
 Vibration    19          0.944              1.847              2.182
 Vibration    20          0.948              1.839              2.129
 Vibration    21          0.949              1.838              2.120
 Vibration    22          0.955              1.826              2.044
 Vibration    23          0.966              1.803              1.918
 Vibration    24          0.976              1.782              1.814
 Vibration    25          0.981              1.772              1.768
 Vibration    26          0.986              1.760              1.720
 Vibration    27          1.009              1.713              1.543
 Vibration    28          1.019              1.693              1.476
 Vibration    29          1.025              1.682              1.443
 Vibration    30          1.028              1.677              1.426
 Vibration    31          1.042              1.648              1.344
 Vibration    32          1.074              1.588              1.196
 Vibration    33          1.110              1.520              1.054
 Vibration    34          1.130              1.485              0.989
 Vibration    35          1.133              1.480              0.979
 Vibration    36          1.151              1.448              0.926
 Vibration    37          1.179              1.399              0.850
 Vibration    38          1.222              1.328              0.752
 Vibration    39          1.266              1.259              0.669
 Vibration    40          1.268              1.256              0.665
 Vibration    41          1.281              1.236              0.642
 Vibration    42          1.350              1.134              0.539
 Vibration    43          1.395              1.071              0.482
 Vibration    44          1.428              1.027              0.446
 Vibration    45          1.439              1.013              0.435
 Vibration    46          1.452              0.995              0.421

                           ! Non-Optimized Parameters !
 Normal termination of Gaussian 16 at Mon Dec 10 20:06:48 2018.
