 Gaussian 16, Revision A.03,
 Gaussian 16:  ES64L-G16RevA.03 25-Dec-2016

 ----------------------------------------------------------------------
 # opt=maxstep=3 freq m062x/6-311++g(d,p) scrf=(solvent=acetonitrile,sm
 d) scf=(xqc,maxconventionalcycles=400) temperature=443.15
 ----------------------------------------------------------------------

 -------------------
 Title Card Required
 -------------------
 Symbolic Z-matrix:
 Charge =  1 Multiplicity = 1

 SCF Done:  E(RM062X) =  -896.787484782     A.U. after   14 cycles
 SCF Done:  E(RM062X) =  -896.787503224     A.U. after   10 cycles
 SCF Done:  E(RM062X) =  -896.787487466     A.U. after   11 cycles
 SCF Done:  E(RM062X) =  -896.787161338     A.U. after   11 cycles
 SCF Done:  E(RM062X) =  -896.787519755     A.U. after   10 cycles
 SCF Done:  E(RM062X) =  -896.787532423     A.U. after   10 cycles
 SCF Done:  E(RM062X) =  -896.787505411     A.U. after   10 cycles
 SCF Done:  E(RM062X) =  -896.787574019     A.U. after   10 cycles
 SCF Done:  E(RM062X) =  -896.787565466     A.U. after   10 cycles
 SCF Done:  E(RM062X) =  -896.787539835     A.U. after   11 cycles
 SCF Done:  E(RM062X) =  -896.787627751     A.U. after    9 cycles
 SCF Done:  E(RM062X) =  -896.787630400     A.U. after    9 cycles
 SCF Done:  E(RM062X) =  -896.787631583     A.U. after    9 cycles
 SCF Done:  E(RM062X) =  -896.787632664     A.U. after   10 cycles
 SCF Done:  E(RM062X) =  -896.787633460     A.U. after    9 cycles
 SCF Done:  E(RM062X) =  -896.787633262     A.U. after    8 cycles
 SCF Done:  E(RM062X) =  -896.787633386     A.U. after    8 cycles
 SCF Done:  E(RM062X) =  -896.787633256     A.U. after    7 cycles
 SCF Done:  E(RM062X) =  -896.787633338     A.U. after    7 cycles
 Optimization completed.
    -- Stationary point found.
 Normal termination of Gaussian 16 at Thu Dec 13 13:02:06 2018.

 ----------------------------------------------------------------------
 #N Geom=AllCheck Guess=TCheck SCRF=Check GenChk RM062X/6-311++G(d,p) F
 req
 ----------------------------------------------------------------------

 Structure from the checkpoint file:  "/scratch/ykim/gaussianScratch.6087271/Gau-15544.chk"
 -------------------
 Title Card Required
 -------------------
 Charge =  1 Multiplicity = 1

                         Standard orientation:
 ---------------------------------------------------------------------
 Center     Atomic      Atomic             Coordinates (Angstroms)
 Number     Number       Type             X           Y           Z
 ---------------------------------------------------------------------
      1          6           0        2.618283    0.278990   -0.954760
      2          6           0        2.580748    1.292731    0.204044
      3          6           0        1.599378    0.657229    1.206118
      4          6           0        0.628804   -0.031060    0.224560
      5          8           0        1.462715   -0.565277   -0.770652
      6          6           0        3.855909   -0.584533   -1.011098
      7          6           0       -0.189387   -1.169327    0.804065
      8          8           0        4.024965   -1.221700    0.252222
      9          8           0        2.036092    2.501870   -0.323599
     10          8           0       -0.267976    0.926967   -0.330130
     11          8           0        2.217106   -0.252950    2.073696
     12          8           0       -0.871932   -1.890461   -0.235414
     13          1           0        3.739323   -1.331095   -1.801636
     14          1           0        4.714103    0.052454   -1.244070
     15          1           0        4.877044   -1.670129    0.279279
     16          1           0        2.525137    0.815764   -1.902476
     17          1           0        3.563816    1.461743    0.648084
     18          1           0        2.094883    3.189295    0.352138
     19          1           0        1.086416    1.408537    1.807741
     20          1           0        2.890090   -0.749452    1.575477
     21          1           0        0.228599    1.730904   -0.559141
     22          1           0       -0.956306   -0.780885    1.474194
     23          1           0        0.461828   -1.851520    1.346375
     24          1           0       -0.214051   -2.287723   -0.827192
     25          1           0       -1.790547    0.502261   -1.059556
     26          8           0       -2.389371   -0.249334   -1.296350
     27          1           0       -1.864452   -1.058335   -0.899594
     28          1           0       -3.325522   -0.133431   -0.900196
     29          7           0       -4.785383    0.036044   -0.335905
     30          6           0       -5.847717    0.155548    0.077252
     31          6           0       -7.190141    0.305421    0.601634
     32          1           0       -7.882236    0.458192   -0.226762
     33          1           0       -7.461301   -0.597762    1.148950
     34          1           0       -7.217218    1.165951    1.270657
 ---------------------------------------------------------------------

 SCF Done:  E(RM062X) =  -896.787633338     A.U. after    1 cycles

 The electronic state is 1-A.
 Alpha  occ. eigenvalues --  -19.70639 -19.68015 -19.65751 -19.65236 -19.65138
 Alpha  occ. eigenvalues --  -19.64468 -19.62797 -14.78069 -10.66560 -10.62238
 Alpha  occ. eigenvalues --  -10.61012 -10.60915 -10.60646 -10.60596 -10.59438
 Alpha  occ. eigenvalues --  -10.57439  -1.24444  -1.22943  -1.19253  -1.17272
 Alpha  occ. eigenvalues --   -1.17075  -1.15569  -1.15025  -1.05741  -0.89876
 Alpha  occ. eigenvalues --   -0.87860  -0.87036  -0.82506  -0.75855  -0.71854
 Alpha  occ. eigenvalues --   -0.71340  -0.69144  -0.67667  -0.65444  -0.64382
 Alpha  occ. eigenvalues --   -0.62773  -0.60777  -0.59699  -0.58782  -0.56770
 Alpha  occ. eigenvalues --   -0.55818  -0.54465  -0.53411  -0.52937  -0.52933
 Alpha  occ. eigenvalues --   -0.52400  -0.51429  -0.51086  -0.49346  -0.49183
 Alpha  occ. eigenvalues --   -0.48801  -0.47536  -0.45908  -0.44643  -0.43328
 Alpha  occ. eigenvalues --   -0.42741  -0.42645  -0.42610  -0.41104  -0.39863
 Alpha  occ. eigenvalues --   -0.38882  -0.37421  -0.36437  -0.33874
 Alpha virt. eigenvalues --   -0.00874  -0.00003   0.00402   0.00813   0.01237
 Alpha virt. eigenvalues --    0.02089   0.02335   0.02982   0.03264   0.03289
 Alpha virt. eigenvalues --    0.03701   0.03980   0.05253   0.05285   0.05414

 Mulliken charges:
               1
     1  C    0.210296
     2  C   -0.456304
     3  C   -0.549063
     4  C   -0.086826
     5  O   -0.015501
     6  C   -0.543556
     7  C   -0.642343
     8  O   -0.389139
     9  O   -0.298835
    10  O   -0.314251
    11  O   -0.203431
    12  O   -0.320504
    13  H    0.224847
    14  H    0.216509
    15  H    0.365967
    16  H    0.308519
    17  H    0.338826
    18  H    0.317910
    19  H    0.330326
    20  H    0.330081
    21  H    0.373302
    22  H    0.312969
    23  H    0.246366
    24  H    0.364851
    25  H    0.406969
    26  O   -0.636046
    27  H    0.438920
    28  H    0.691190
    29  N   -0.449659
    30  C    0.377225
    31  C   -0.655629
    32  H    0.234670
    33  H    0.235888
    34  H    0.235457
 Sum of Mulliken charges =   1.00000

 Dipole moment (field-independent basis, Debye):
    X=             -6.5369    Y=              1.3323    Z=             -0.3371  Tot=              6.6798
 Quadrupole moment (field-independent basis, Debye-Ang):
   XX=             33.7658   YY=            -79.2265   ZZ=            -95.9764
   XY=             -5.3749   XZ=            -15.2191   YZ=              6.2382

  Exact polarizability: 186.077  -5.090 146.216 -11.164   0.545 146.530
 Approx polarizability: 158.708  -5.749 133.541  -8.283   0.022 134.060

                      1                      2                      3
                      A                      A                      A
 Frequencies --     14.5460                20.9205                37.1927
 Red. masses --      5.0431                 4.6937                 5.2115
 Frc consts  --      0.0006                 0.0012                 0.0042
 IR Inten    --      2.1517                 3.2869                 4.7220

                      4                      5                      6
                      A                      A                      A
 Frequencies --     64.6212                71.1316                76.4521
 Red. masses --      5.7437                 5.0300                 1.0461
 Frc consts  --      0.0141                 0.0150                 0.0036
 IR Inten    --      3.9652                 6.0210                 0.1573

                      7                      8                      9
                      A                      A                      A
 Frequencies --     88.4308               127.5917               140.1603
 Red. masses --      4.8106                 5.0296                 5.0647
 Frc consts  --      0.0222                 0.0482                 0.0586
 IR Inten    --      8.4343                 6.3905                19.9065

                     10                     11                     12
                      A                      A                      A
 Frequencies --    149.1342               159.8311               187.7340
 Red. masses --      4.1276                 5.0806                 4.4334
 Frc consts  --      0.0541                 0.0765                 0.0921
 IR Inten    --     53.9767                10.9312                46.5969

                     13                     14                     15
                      A                      A                      A
 Frequencies --    191.8289               234.8575               252.3693
 Red. masses --      1.1659                 4.7746                 5.4211
 Frc consts  --      0.0253                 0.1552                 0.2034
 IR Inten    --    142.7641               222.6208                 1.1966

                     16                     17                     18
                      A                      A                      A
 Frequencies --    270.2706               295.0766               305.3426
 Red. masses --      4.1527                 3.2837                 4.8675
 Frc consts  --      0.1787                 0.1685                 0.2674
 IR Inten    --     11.4603                20.2412                25.8144

                     19                     20                     21
                      A                      A                      A
 Frequencies --    331.3810               368.8873               374.8455
 Red. masses --      2.6711                 2.8425                 1.4602
 Frc consts  --      0.1728                 0.2279                 0.1209
 IR Inten    --    144.2722                55.3506                43.1517

                     22                     23                     24
                      A                      A                      A
 Frequencies --    407.6947               416.6165               418.2675
 Red. masses --      2.8791                 3.5143                 3.4268
 Frc consts  --      0.2820                 0.3594                 0.3532
 IR Inten    --    110.0993                 1.3608                 3.2400

                     25                     26                     27
                      A                      A                      A
 Frequencies --    431.6799               457.6910               485.0376
 Red. masses --      3.4861                 3.3067                 1.4830
 Frc consts  --      0.3828                 0.4081                 0.2056
 IR Inten    --     82.7989                28.8189               207.6207

                     28                     29                     30
                      A                      A                      A
 Frequencies --    509.6467               567.0050               585.0087
 Red. masses --      3.6013                 1.2233                 1.1427
 Frc consts  --      0.5511                 0.2317                 0.2304
 IR Inten    --      8.4769               158.4989               148.9338

                     31                     32                     33
                      A                      A                      A
 Frequencies --    594.4291               615.1632               645.6443
 Red. masses --      1.3325                 2.9437                 3.4650
 Frc consts  --      0.2774                 0.6563                 0.8510
 IR Inten    --     45.0325                31.7076                77.1658

                     34                     35                     36
                      A                      A                      A
 Frequencies --    654.1797               738.7745               754.5449
 Red. masses --      1.0956                 4.7743                 5.8696
 Frc consts  --      0.2762                 1.5353                 1.9689
 IR Inten    --     77.6666                15.9419                59.3667

                     37                     38                     39
                      A                      A                      A
 Frequencies --    868.8459               895.3799               912.5910
 Red. masses --      5.0377                 1.7306                 2.3580
 Frc consts  --      2.2406                 0.8175                 1.1570
 IR Inten    --     56.4122                48.5695                32.6957

                     40                     41                     42
                      A                      A                      A
 Frequencies --    923.4312               957.0731               959.7695
 Red. masses --      1.4561                 2.3937                 4.1800
 Frc consts  --      0.7315                 1.2919                 2.2686
 IR Inten    --    231.7199               176.4540                 7.7525

                     43                     44                     45
                      A                      A                      A
 Frequencies --   1010.1626              1031.1591              1045.9366
 Red. masses --      2.4477                 2.6721                 2.6052
 Frc consts  --      1.4716                 1.6740                 1.6792
 IR Inten    --     25.6190                84.7326                33.5780

                     46                     47                     48
                      A                      A                      A
 Frequencies --   1057.1008              1058.6649              1078.9748
 Red. masses --      1.4864                 1.4812                 3.4024
 Frc consts  --      0.9786                 0.9781                 2.3337
 IR Inten    --     12.8213                13.7408                18.0881

                     49                     50                     51
                      A                      A                      A
 Frequencies --   1100.8779              1113.8808              1127.3837
 Red. masses --      2.6299                 3.6565                 2.7288
 Frc consts  --      1.8778                 2.6730                 2.0434
 IR Inten    --    263.4311               154.2812                 5.8608

                     52                     53                     54
                      A                      A                      A
 Frequencies --   1133.3312              1153.6787              1197.1313
 Red. masses --      2.4950                 1.9929                 1.3387
 Frc consts  --      1.8882                 1.5628                 1.1304
 IR Inten    --    118.6038                53.0515                 7.3556

                     55                     56                     57
                      A                      A                      A
 Frequencies --   1206.0070              1225.4264              1228.0130
 Red. masses --      2.3824                 1.5139                 1.3607
 Frc consts  --      2.0416                 1.3394                 1.2090
 IR Inten    --     78.1407               146.7714               164.6387

                     58                     59                     60
                      A                      A                      A
 Frequencies --   1261.4273              1281.7087              1310.6964
 Red. masses --      1.3900                 1.1854                 1.1037
 Frc consts  --      1.3032                 1.1474                 1.1171
 IR Inten    --      8.1548                35.9262               335.5632

                     61                     62                     63
                      A                      A                      A
 Frequencies --   1317.5430              1353.0880              1364.1153
 Red. masses --      1.2085                 1.4109                 1.2863
 Frc consts  --      1.2360                 1.5219                 1.4103
 IR Inten    --     11.3754                29.5880                31.9293

                     64                     65                     66
                      A                      A                      A
 Frequencies --   1366.3859              1382.3815              1394.8424
 Red. masses --      1.4585                 1.3350                 1.2493
 Frc consts  --      1.6044                 1.5031                 1.4321
 IR Inten    --     20.2983                60.0967                 5.2730

                     67                     68                     69
                      A                      A                      A
 Frequencies --   1410.8000              1440.4186              1442.1199
 Red. masses --      1.2586                 1.0357                 1.5607
 Frc consts  --      1.4759                 1.2661                 1.9124
 IR Inten    --    219.4878                25.4894                 5.5081

                     70                     71                     72
                      A                      A                      A
 Frequencies --   1443.4052              1459.6272              1474.9708
 Red. masses --      1.0359                 1.5943                 1.9651
 Frc consts  --      1.2716                 2.0012                 2.5189
 IR Inten    --     26.6803                 1.1337                12.2601

                     73                     74                     75
                      A                      A                      A
 Frequencies --   1489.0122              1492.7572              1505.9337
 Red. masses --      1.2038                 1.0774                 1.0853
 Frc consts  --      1.5726                 1.4145                 1.4502
 IR Inten    --     80.0071                15.6929                12.5403

                     76                     77                     78
                      A                      A                      A
 Frequencies --   1620.4911              1686.1457              2392.2221
 Red. masses --      1.0434                 1.0690                 1.1577
 Frc consts  --      1.6143                 1.7908                 3.9033
 IR Inten    --    127.7195               629.1298              4170.5443

                     79                     80                     81
                      A                      A                      A
 Frequencies --   2441.1422              2712.7787              3070.2773
 Red. masses --      9.0486                 1.0749                 1.0579
 Frc consts  --     31.7702                 4.6607                 5.8758
 IR Inten    --    102.9571              2895.9522                33.2830

                     82                     83                     84
                      A                      A                      A
 Frequencies --   3087.5107              3101.4936              3114.9349
 Red. masses --      1.0330                 1.0863                 1.0890
 Frc consts  --      5.8018                 6.1564                 6.2256
 IR Inten    --      5.2522                23.5719                11.1096

                     85                     86                     87
                      A                      A                      A
 Frequencies --   3121.1643              3127.3428              3133.7356
 Red. masses --      1.1087                 1.0603                 1.0889
 Frc consts  --      6.3635                 6.1098                 6.3006
 IR Inten    --     26.3946                 4.6124                18.2100

                     88                     89                     90
                      A                      A                      A
 Frequencies --   3176.7053              3177.7919              3191.1514
 Red. masses --      1.1041                 1.1040                 1.1107
 Frc consts  --      6.5645                 6.5683                 6.6644
 IR Inten    --      7.0455                 7.0242                 1.6826

                     91                     92                     93
                      A                      A                      A
 Frequencies --   3407.6582              3646.5050              3701.9428
 Red. masses --      1.0606                 1.0674                 1.0666
 Frc consts  --      7.2560                 8.3627                 8.6118
 IR Inten    --   1098.4639               629.1624               326.5553

                     94                     95                     96
                      A                      A                      A
 Frequencies --   3772.0843              3875.6056              3908.2519
 Red. masses --      1.0662                 1.0666                 1.0670
 Frc consts  --      8.9381                 9.4395                 9.6024
 IR Inten    --    212.6542               158.5780               176.2437

 - Thermochemistry -
 -------------------
 Temperature   443.150 Kelvin.  Pressure   1.00000 Atm.
 Atom     1 has atomic number  6 and mass  12.00000

 Molecular mass:   240.10833 amu.
 Principal axes and moments of inertia in atomic units:
                           1         2         3
     Eigenvalues --  1705.779419807.56786**********
           X            0.99997  -0.00194  -0.00701
           Y            0.00211   0.99971   0.02405
           Z            0.00696  -0.02406   0.99969
 This molecule is an asymmetric top.
 Rotational symmetry number  1.
 Warning -- assumption of classical behavior for rotation
           may cause significant error
 Rotational temperatures (Kelvin)      0.05078     0.00883     0.00854
 Rotational constants (GHZ):           1.05802     0.18402     0.17789
 Zero-point vibrational energy     741606.8 (Joules/Mol)
                                  177.24828 (Kcal/Mol)
 Warning -- explicit consideration of  39 degrees of freedom as
           vibrations may cause significant error
 Vibrational temperatures:     20.93    30.10    53.51    92.98   102.34
          (Kelvin)            110.00   127.23   183.58   201.66   214.57
                              229.96   270.11   276.00   337.91   363.10
                              388.86   424.55   439.32   476.78   530.75
                              539.32   586.58   599.42   601.79   621.09
                              658.52   697.86   733.27   815.79   841.70
                              855.25   885.08   928.94   941.22  1062.93
                             1085.62  1250.08  1288.25  1313.01  1328.61
                             1377.01  1380.89  1453.40  1483.61  1504.87
                             1520.93  1523.18  1552.40  1583.92  1602.63
                             1622.05  1630.61  1659.89  1722.40  1735.18
                             1763.12  1766.84  1814.91  1844.09  1885.80
                             1895.65  1946.79  1962.66  1965.92  1988.94
                             2006.87  2029.83  2072.44  2074.89  2076.74
                             2100.08  2122.15  2142.36  2147.74  2166.70
                             2331.53  2425.99  3441.87  3512.26  3903.08
                             4417.44  4442.24  4462.36  4481.70  4490.66
                             4499.55  4508.75  4570.57  4572.13  4591.36
                             4902.86  5246.51  5326.27  5427.19  5576.13
                             5623.10

 Zero-point correction=                           0.282463 (Hartree/Particle)
 Thermal correction to Energy=                    0.321213
 Thermal correction to Enthalpy=                  0.322617
 Thermal correction to Gibbs Free Energy=         0.193921
 Sum of electronic and zero-point Energies=           -896.505170
 Sum of electronic and thermal Energies=              -896.466420
 Sum of electronic and thermal Enthalpies=            -896.465017
 Sum of electronic and thermal Free Energies=         -896.593712

                     E (Thermal)             CV                S
                      KCal/Mol        Cal/Mol-Kelvin    Cal/Mol-Kelvin
 Total                  201.564             94.826            182.236
 Electronic               0.000              0.000              0.000
 Translational            1.321              2.981             44.298
 Rotational               1.321              2.981             34.676
 Vibrational            198.922             88.865            103.261
 Vibration     1          0.881              1.987              8.054
 Vibration     2          0.881              1.986              7.332
 Vibration     3          0.882              1.985              6.189
 Vibration     4          0.884              1.980              5.094
 Vibration     5          0.885              1.978              4.904
 Vibration     6          0.885              1.977              4.761
 Vibration     7          0.887              1.974              4.474
 Vibration     8          0.893              1.959              3.753
 Vibration     9          0.896              1.953              3.569
 Vibration    10          0.898              1.949              3.448
 Vibration    11          0.900              1.943              3.313
 Vibration    12          0.908              1.927              3.002
 Vibration    13          0.909              1.924              2.960
 Vibration    14          0.923              1.894              2.573
 Vibration    15          0.929              1.880              2.438
 Vibration    16          0.936              1.864              2.309
 Vibration    17          0.947              1.842              2.147
 Vibration    18          0.952              1.832              2.084
 Vibration    19          0.964              1.806              1.935
 Vibration    20          0.983              1.766              1.743
 Vibration    21          0.987              1.759              1.715
 Vibration    22          1.006              1.721              1.569
 Vibration    23          1.011              1.710              1.532
 Vibration    24          1.012              1.708              1.525
 Vibration    25          1.020              1.692              1.471
 Vibration    26          1.037              1.659              1.373
 Vibration    27          1.056              1.623              1.278
 Vibration    28          1.073              1.590              1.199
 Vibration    29          1.116              1.510              1.033
 Vibration    30          1.131              1.484              0.987
 Vibration    31          1.138              1.470              0.963
 Vibration    32          1.156              1.440              0.913
 Vibration    33          1.182              1.395              0.844
 Vibration    34          1.189              1.383              0.826
 Vibration    35          1.267              1.257              0.666
 Vibration    36          1.282              1.233              0.639
 Vibration    37          1.399              1.065              0.477
 Vibration    38          1.428              1.027              0.446
 Vibration    39          1.447              1.002              0.426

                           ! Non-Optimized Parameters !
 Normal termination of Gaussian 16 at Thu Dec 13 13:31:41 2018.
