 Gaussian 16, Revision B.01,
 Gaussian 16:  ES64L-G16RevB.01 20-Dec-2017

 ----------------------------------------------------------------------
 # opt freq 6-311++g(d,p) m062x scf=(xqc,maxconventionalcycles=400) scr
 f=(smd,solvent=2-butanol) temperature=443.15
 ----------------------------------------------------------------------

 -------------------
 Title Card Required
 -------------------
 Symbolic Z-matrix:
 Charge =  1 Multiplicity = 1

 SCF Done:  E(RM062X) =  -997.692341809     A.U. after   13 cycles
 SCF Done:  E(RM062X) =  -997.696069139     A.U. after   11 cycles
 SCF Done:  E(RM062X) =  -997.691509965     A.U. after   14 cycles
 SCF Done:  E(RM062X) =  -997.695799609     A.U. after   11 cycles
 SCF Done:  E(RM062X) =  -997.696618488     A.U. after    8 cycles
 SCF Done:  E(RM062X) =  -997.695902230     A.U. after   11 cycles
 SCF Done:  E(RM062X) =  -997.696912334     A.U. after   10 cycles
 SCF Done:  E(RM062X) =  -997.696743343     A.U. after   11 cycles
 SCF Done:  E(RM062X) =  -997.696893453     A.U. after   11 cycles
 SCF Done:  E(RM062X) =  -997.696949816     A.U. after   10 cycles
 SCF Done:  E(RM062X) =  -997.696968187     A.U. after    8 cycles
 SCF Done:  E(RM062X) =  -997.696970191     A.U. after    9 cycles
 SCF Done:  E(RM062X) =  -997.696967953     A.U. after    9 cycles
 SCF Done:  E(RM062X) =  -997.696968182     A.U. after    8 cycles
 SCF Done:  E(RM062X) =  -997.696970180     A.U. after    9 cycles
 SCF Done:  E(RM062X) =  -997.696967885     A.U. after    9 cycles
 SCF Done:  E(RM062X) =  -997.696967961     A.U. after    6 cycles
 SCF Done:  E(RM062X) =  -997.696970132     A.U. after    9 cycles
 SCF Done:  E(RM062X) =  -997.696967809     A.U. after    9 cycles
 Optimization completed on the basis of negligible forces.
    -- Stationary point found.
 Normal termination of Gaussian 16 at Wed Jan 23 09:36:58 2019.

 ----------------------------------------------------------------------
 #N Geom=AllCheck Guess=TCheck SCRF=Check GenChk RM062X/6-311++G(d,p) F
 req
 ----------------------------------------------------------------------

 Structure from the checkpoint file:  "/scratch/ykim/gaussianScratch.558289/Gau-181880.chk"
 -------------------
 Title Card Required
 -------------------
 Charge =  1 Multiplicity = 1

                         Standard orientation:
 ---------------------------------------------------------------------
 Center     Atomic      Atomic             Coordinates (Angstroms)
 Number     Number       Type             X           Y           Z
 ---------------------------------------------------------------------
      1          6           0        3.485246   -0.076816   -1.051812
      2          6           0        3.503421    1.270419   -0.309403
      3          6           0        2.546099    1.045963    0.873131
      4          6           0        1.531009    0.077499    0.232869
      5          8           0        2.317367   -0.773467   -0.571654
      6          6           0        4.699522   -0.947324   -0.828685
      7          6           0        0.759824   -0.781361    1.217387
      8          8           0        4.871775   -1.136457    0.571807
      9          8           0        2.969226    2.243858   -1.202260
     10          8           0        0.595479    0.790137   -0.556766
     11          8           0        3.186077    0.500544    1.999899
     12          8           0       -0.082592   -1.722383    0.544217
     13          1           0        4.548698   -1.909744   -1.326423
     14          1           0        5.572033   -0.452329   -1.265585
     15          1           0        5.680768   -1.632517    0.737616
     16          1           0        3.380145    0.107206   -2.124472
     17          1           0        4.503829    1.549910    0.028616
     18          1           0        3.017215    3.110671   -0.779469
     19          1           0        2.059693    1.972637    1.179834
     20          1           0        3.816369   -0.180379    1.702884
     21          1           0        1.069946    1.437195   -1.103220
     22          1           0        0.106251   -0.151439    1.821641
     23          1           0        1.455933   -1.312487    1.864384
     24          1           0        0.462886   -2.351480    0.051543
     25          1           0       -1.243269    0.331515   -0.938087
     26          8           0       -1.799742   -0.460509   -0.797847
     27          1           0       -1.188390   -1.077221   -0.249322
     28          1           0       -2.706156   -0.221804   -0.289720
     29          8           0       -3.921463    0.051701    0.342578
     30          1           0       -3.930561    0.966716    0.656636
     31          6           0       -5.103658   -0.209421   -0.469198
     32          1           0       -5.003174    0.375650   -1.389937
     33          6           0       -6.353229    0.222724    0.280431
     34          1           0       -7.209248   -0.052056   -0.342748
     35          1           0       -6.424684   -0.361224    1.204119
     36          6           0       -5.086732   -1.690320   -0.781055
     37          1           0       -4.165120   -1.973100   -1.294695
     38          1           0       -5.171372   -2.271931    0.140546
     39          1           0       -5.929248   -1.937755   -1.429541
     40          6           0       -6.402222    1.717599    0.586406
     41          1           0       -7.359471    1.985203    1.037887
     42          1           0       -5.623741    2.019148    1.293585
     43          1           0       -6.284021    2.308449   -0.326293
 ---------------------------------------------------------------------

 SCF Done:  E(RM062X) =  -997.696967809     A.U. after    1 cycles

 The electronic state is 1-A.
 Alpha  occ. eigenvalues --  -19.69333 -19.66898 -19.66893 -19.65121 -19.64983
 Alpha  occ. eigenvalues --  -19.64821 -19.64414 -19.63192 -10.66204 -10.60899
 Alpha  occ. eigenvalues --  -10.60617 -10.60571 -10.60463 -10.60337 -10.59505
 Alpha  occ. eigenvalues --  -10.53621 -10.52832 -10.52673  -1.23400  -1.22242
 Alpha  occ. eigenvalues --   -1.18746  -1.17916  -1.17053  -1.16849  -1.15637
 Alpha  occ. eigenvalues --   -1.14667  -0.90087  -0.89666  -0.87692  -0.83441
 Alpha  occ. eigenvalues --   -0.82223  -0.75677  -0.73188  -0.71386  -0.69216
 Alpha  occ. eigenvalues --   -0.68494  -0.68083  -0.66977  -0.65172  -0.64028
 Alpha  occ. eigenvalues --   -0.62355  -0.61490  -0.60502  -0.59524  -0.56989
 Alpha  occ. eigenvalues --   -0.55464  -0.54734  -0.54335  -0.52706  -0.52110
 Alpha  occ. eigenvalues --   -0.51539  -0.50940  -0.50369  -0.49793  -0.49347
 Alpha  occ. eigenvalues --   -0.48644  -0.47432  -0.47082  -0.45646  -0.45451
 Alpha  occ. eigenvalues --   -0.44995  -0.43990  -0.43267  -0.42867  -0.42648
 Alpha  occ. eigenvalues --   -0.40817  -0.40646  -0.39770  -0.39517  -0.38741
 Alpha  occ. eigenvalues --   -0.37657  -0.37363  -0.36368  -0.33849
 Alpha virt. eigenvalues --   -0.01098  -0.00069   0.00324   0.00566   0.01056
 Alpha virt. eigenvalues --    0.01336   0.01653   0.02373   0.02758   0.02966
 Alpha virt. eigenvalues --    0.03266   0.03544   0.04093   0.04440   0.04635

 Mulliken charges:
               1
     1  C    0.403417
     2  C   -0.574773
     3  C   -0.412006
     4  C   -0.238475
     5  O   -0.055926
     6  C   -0.561299
     7  C   -0.597909
     8  O   -0.409241
     9  O   -0.307761
    10  O   -0.317345
    11  O   -0.236885
    12  O   -0.344300
    13  H    0.221790
    14  H    0.211192
    15  H    0.378478
    16  H    0.307341
    17  H    0.328762
    18  H    0.328137
    19  H    0.325385
    20  H    0.343245
    21  H    0.378623
    22  H    0.300772
    23  H    0.226694
    24  H    0.368374
    25  H    0.433932
    26  O   -0.618306
    27  H    0.488992
    28  H    0.513086
    29  O   -0.371678
    30  H    0.351104
    31  C   -0.124259
    32  H    0.228986
    33  C   -0.280099
    34  H    0.190078
    35  H    0.187414
    36  C   -0.570345
    37  H    0.181360
    38  H    0.195116
    39  H    0.186651
    40  C   -0.586337
    41  H    0.196856
    42  H    0.158951
    43  H    0.172210
 Sum of Mulliken charges =   1.00000

 Dipole moment (field-independent basis, Debye):
    X=             -1.6967    Y=              1.5207    Z=             -2.3036  Tot=              3.2400
 Quadrupole moment (field-independent basis, Debye-Ang):
   XX=            -16.8082   YY=            -90.3605   ZZ=           -114.2477
   XY=            -10.0762   XZ=             -4.6658   YZ=              0.6216

  Exact polarizability: 211.495  -5.573 197.396  -1.940   0.545 191.008
 Approx polarizability: 175.356  -3.672 170.247   0.554  -0.510 168.974

                      1                      2                      3
                      A                      A                      A
 Frequencies --     11.8531                14.4829                24.0458
 Red. masses --      4.3689                 3.3922                 4.8258
 Frc consts  --      0.0004                 0.0004                 0.0016
 IR Inten    --      0.8024                 0.2501                 0.3761

                      4                      5                      6
                      A                      A                      A
 Frequencies --     40.3115                49.9786                62.0462
 Red. masses --      5.8905                 3.3898                 4.2116
 Frc consts  --      0.0056                 0.0050                 0.0096
 IR Inten    --      5.6415                 1.3076                 7.5647

                      7                      8                      9
                      A                      A                      A
 Frequencies --     69.4215               122.1564               126.6874
 Red. masses --      4.4464                 3.8699                 2.2883
 Frc consts  --      0.0126                 0.0340                 0.0216
 IR Inten    --      0.8414                38.7622                 2.4599

                     10                     11                     12
                      A                      A                      A
 Frequencies --    132.8029               145.7543               160.1574
 Red. masses --      3.9266                 3.6865                 3.9022
 Frc consts  --      0.0408                 0.0461                 0.0590
 IR Inten    --      0.3488                29.4152                31.8463

                     13                     14                     15
                      A                      A                      A
 Frequencies --    184.1991               189.5786               224.6109
 Red. masses --      1.8129                 2.0105                 1.9830
 Frc consts  --      0.0362                 0.0426                 0.0589
 IR Inten    --     68.0467               130.5685                68.9926

                     16                     17                     18
                      A                      A                      A
 Frequencies --    235.3702               247.1821               253.9711
 Red. masses --      1.2059                 3.3276                 1.5259
 Frc consts  --      0.0394                 0.1198                 0.0580
 IR Inten    --     17.4943                38.8922                 7.0334

                     19                     20                     21
                      A                      A                      A
 Frequencies --    262.6899               290.4415               298.7352
 Red. masses --      4.5862                 3.1462                 3.3716
 Frc consts  --      0.1865                 0.1564                 0.1773
 IR Inten    --     27.3912               190.4301                39.4149

                     22                     23                     24
                      A                      A                      A
 Frequencies --    302.9893               331.5514               355.2196
 Red. masses --      3.9950                 2.5744                 2.0399
 Frc consts  --      0.2161                 0.1667                 0.1517
 IR Inten    --     70.0540                88.9677                21.0022

                     25                     26                     27
                      A                      A                      A
 Frequencies --    369.4467               390.1863               395.7223
 Red. masses --      2.2844                 1.9173                 2.0604
 Frc consts  --      0.1837                 0.1720                 0.1901
 IR Inten    --     66.3404                70.6705                61.8999

                     28                     29                     30
                      A                      A                      A
 Frequencies --    423.7330               437.7782               449.6037
 Red. masses --      1.5991                 2.7729                 1.8242
 Frc consts  --      0.1692                 0.3131                 0.2173
 IR Inten    --    216.4195                27.0652                60.1648

                     31                     32                     33
                      A                      A                      A
 Frequencies --    456.5440               487.5282               504.9390
 Red. masses --      1.7632                 1.4479                 1.9540
 Frc consts  --      0.2165                 0.2028                 0.2935
 IR Inten    --     64.7861               119.2939                58.9809

                     34                     35                     36
                      A                      A                      A
 Frequencies --    516.6034               518.0231               524.8524
 Red. masses --      2.6394                 1.8726                 1.2545
 Frc consts  --      0.4150                 0.2961                 0.2036
 IR Inten    --     77.3060               213.6866                51.4690

                     37                     38                     39
                      A                      A                      A
 Frequencies --    537.7368               608.2247               642.4691
 Red. masses --      1.4688                 5.2325                 4.2124
 Frc consts  --      0.2502                 1.1405                 1.0244
 IR Inten    --    115.1301                32.0670                78.8008

                     40                     41                     42
                      A                      A                      A
 Frequencies --    683.7937               740.1418               758.2928
 Red. masses --      1.1229                 4.9528                 5.9906
 Frc consts  --      0.3093                 1.5986                 2.0295
 IR Inten    --     98.8674                14.9828                57.8515

                     43                     44                     45
                      A                      A                      A
 Frequencies --    772.3205               831.0938               870.1592
 Red. masses --      1.4559                 1.7265                 5.2502
 Frc consts  --      0.5117                 0.7026                 2.3422
 IR Inten    --     21.1025                16.5999                62.4068

                     46                     47                     48
                      A                      A                      A
 Frequencies --    908.8792               918.5543               920.9216
 Red. masses --      2.0697                 2.5551                 2.3913
 Frc consts  --      1.0073                 1.2702                 1.1949
 IR Inten    --     38.9166                87.7978                78.2935

                     49                     50                     51
                      A                      A                      A
 Frequencies --    958.8848               980.4152              1000.6724
 Red. masses --      1.9659                 1.2512                 1.3536
 Frc consts  --      1.0650                 0.7086                 0.7986
 IR Inten    --      9.4570                21.9746               246.1588

                     52                     53                     54
                      A                      A                      A
 Frequencies --   1014.1100              1014.6048              1035.1186
 Red. masses --      2.1220                 1.5248                 2.4123
 Frc consts  --      1.2858                 0.9248                 1.5229
 IR Inten    --     14.8939                93.3041                81.9836

                     55                     56                     57
                      A                      A                      A
 Frequencies --   1050.1276              1062.1172              1091.6940
 Red. masses --      2.8171                 2.2959                 4.3095
 Frc consts  --      1.8303                 1.5260                 3.0260
 IR Inten    --     99.5135                38.1371                63.1961

                     58                     59                     60
                      A                      A                      A
 Frequencies --   1110.4427              1116.8977              1125.8377
 Red. masses --      2.2883                 1.8720                 3.1712
 Frc consts  --      1.6625                 1.3759                 2.3682
 IR Inten    --    179.8863                 5.5241               191.9737

                     61                     62                     63
                      A                      A                      A
 Frequencies --   1131.8131              1139.8741              1145.3611
 Red. masses --      3.1574                 1.8777                 1.8641
 Frc consts  --      2.3830                 1.4374                 1.4408
 IR Inten    --     29.0925                66.1181                57.8686

                     64                     65                     66
                      A                      A                      A
 Frequencies --   1167.5901              1193.7434              1201.3673
 Red. masses --      2.7805                 2.1084                 1.2009
 Frc consts  --      2.2334                 1.7702                 1.0212
 IR Inten    --    189.0804                27.2309                 3.6702

                     67                     68                     69
                      A                      A                      A
 Frequencies --   1212.9003              1235.7337              1246.6255
 Red. masses --      2.7502                 1.4098                 1.3789
 Frc consts  --      2.3838                 1.2684                 1.2626
 IR Inten    --    109.1452                93.1476               183.7716

                     70                     71                     72
                      A                      A                      A
 Frequencies --   1263.1540              1279.0868              1281.9725
 Red. masses --      1.3070                 1.1766                 1.2079
 Frc consts  --      1.2287                 1.1341                 1.1696
 IR Inten    --      3.4221                60.8034                46.2018

                     73                     74                     75
                      A                      A                      A
 Frequencies --   1291.9955              1310.7880              1331.1604
 Red. masses --      1.1628                 1.2204                 1.3116
 Frc consts  --      1.1436                 1.2355                 1.3694
 IR Inten    --      9.1476                20.4976                32.8763

                     76                     77                     78
                      A                      A                      A
 Frequencies --   1344.5643              1358.3572              1365.0344
 Red. masses --      1.1412                 1.3567                 1.3812
 Frc consts  --      1.2156                 1.4749                 1.5164
 IR Inten    --    391.2962                82.5570                31.5639

                     79                     80                     81
                      A                      A                      A
 Frequencies --   1371.6319              1382.1136              1389.3378
 Red. masses --      1.4971                 1.3435                 1.2028
 Frc consts  --      1.6595                 1.5121                 1.3679
 IR Inten    --     37.8176                30.9640                52.3578

                     82                     83                     84
                      A                      A                      A
 Frequencies --   1404.7169              1408.8391              1411.9316
 Red. masses --      1.2715                 1.3082                 1.2505
 Frc consts  --      1.4782                 1.5299                 1.4688
 IR Inten    --     10.9964                19.5094               253.3534

                     85                     86                     87
                      A                      A                      A
 Frequencies --   1442.1457              1442.4648              1458.7549
 Red. masses --      1.5887                 1.6699                 1.5393
 Frc consts  --      1.9468                 2.0471                 1.9299
 IR Inten    --      5.8563                25.3598                 4.8831

                     88                     89                     90
                      A                      A                      A
 Frequencies --   1463.1364              1474.2498              1478.0171
 Red. masses --      1.0836                 1.8286                 1.3311
 Frc consts  --      1.3668                 2.3416                 1.7133
 IR Inten    --      1.5638                14.3259                79.1686

                     91                     92                     93
                      A                      A                      A
 Frequencies --   1480.8695              1485.4635              1487.1788
 Red. masses --      1.0588                 1.0476                 1.0836
 Frc consts  --      1.3680                 1.3620                 1.4120
 IR Inten    --     13.8816                 8.5953                10.9124

                     94                     95                     96
                      A                      A                      A
 Frequencies --   1489.0990              1501.9024              1508.3424
 Red. masses --      1.1053                 1.0465                 1.0820
 Frc consts  --      1.4441                 1.3908                 1.4504
 IR Inten    --     18.8063                21.8638                 8.7761

                     97                     98                     99
                      A                      A                      A
 Frequencies --   1636.2987              1677.3600              2008.5046
 Red. masses --      1.0484                 1.0362                 1.1693
 Frc consts  --      1.6538                 1.7178                 2.7791
 IR Inten    --    198.3183                59.5206              5279.0568

                    100                    101                    102
                      A                      A                      A
 Frequencies --   2660.7638              3053.4759              3058.7767
 Red. masses --      1.0735                 1.0386                 1.0690
 Frc consts  --      4.4780                 5.7053                 5.8929
 IR Inten    --   1880.1108                25.1550                 8.0744

                    103                    104                    105
                      A                      A                      A
 Frequencies --   3064.1198              3066.7560              3068.2791
 Red. masses --      1.0458                 1.0579                 1.0673
 Frc consts  --      5.7852                 5.8619                 5.9200
 IR Inten    --      8.8745                36.9929                60.9586

                    106                    107                    108
                      A                      A                      A
 Frequencies --   3101.2956              3103.8648              3109.7462
 Red. masses --      1.0861                 1.1023                 1.0886
 Frc consts  --      6.1548                 6.2567                 6.2027
 IR Inten    --     28.3287                 2.3281                15.5888

                    109                    110                    111
                      A                      A                      A
 Frequencies --   3116.6914              3121.1377              3123.8294
 Red. masses --      1.1086                 1.0599                 1.1033
 Frc consts  --      6.3445                 6.0833                 6.3434
 IR Inten    --     32.0133                 9.6212                57.5990

                    112                    113                    114
                      A                      A                      A
 Frequencies --   3135.1393              3137.6670              3142.0033
 Red. masses --      1.0889                 1.1016                 1.1038
 Frc consts  --      6.3058                 6.3900                 6.4203
 IR Inten    --     19.8555                27.0345                31.7849

                    115                    116                    117
                      A                      A                      A
 Frequencies --   3151.4165              3183.5965              3642.9323
 Red. masses --      1.1027                 1.1105                 1.0674
 Frc consts  --      6.4524                 6.6315                 8.3462
 IR Inten    --     19.3325                 6.3670               655.3450

                    118                    119                    120
                      A                      A                      A
 Frequencies --   3657.0084              3737.3559              3817.5209
 Red. masses --      1.0623                 1.0669                 1.0666
 Frc consts  --      8.3707                 8.7802                 9.1581
 IR Inten    --    597.7349               266.5666               205.0047

                    121                    122                    123
                      A                      A                      A
 Frequencies --   3817.7537              3846.7426              3873.1889
 Red. masses --      1.0667                 1.0664                 1.0674
 Frc consts  --      9.1601                 9.2970                 9.4344
 IR Inten    --    151.5746               150.6663               175.9113

 - Thermochemistry -
 -------------------
 Temperature   443.150 Kelvin.  Pressure   1.00000 Atm.
 Atom     1 has atomic number  6 and mass  12.00000

 Molecular mass:   273.15494 amu.
 Principal axes and moments of inertia in atomic units:
                           1         2         3
     Eigenvalues --  2056.51422********************
           X            0.99999  -0.00347  -0.00173
           Y            0.00353   0.99923   0.03897
           Z            0.00160  -0.03898   0.99924
 This molecule is an asymmetric top.
 Rotational symmetry number  1.
 Warning -- assumption of classical behavior for rotation
           may cause significant error
 Rotational temperatures (Kelvin)      0.04212     0.00598     0.00578
 Rotational constants (GHZ):           0.87757     0.12456     0.12038
 Zero-point vibrational energy     981292.2 (Joules/Mol)
                                  234.53447 (Kcal/Mol)
 Warning -- explicit consideration of  48 degrees of freedom as
           vibrations may cause significant error
 Vibrational temperatures:     17.05    20.84    34.60    58.00    71.91
          (Kelvin)             89.27    99.88   175.76   182.27   191.07
                              209.71   230.43   265.02   272.76   323.16
                              338.65   355.64   365.41   377.95   417.88
                              429.81   435.93   477.03   511.08   531.55
                              561.39   569.36   609.66   629.87   646.88
                              656.87   701.44   726.49   743.28   745.32
                              755.15   773.68   875.10   924.37   983.83
                             1064.90  1091.01  1111.20  1195.76  1251.97
                             1307.67  1321.59  1325.00  1379.62  1410.60
                             1439.74  1459.08  1459.79  1489.30  1510.90
                             1528.15  1570.70  1597.68  1606.97  1619.83
                             1628.43  1640.02  1647.92  1679.90  1717.53
                             1728.50  1745.09  1777.95  1793.62  1817.40
                             1840.32  1844.47  1858.89  1885.93  1915.24
                             1934.53  1954.37  1963.98  1973.47  1988.55
                             1998.95  2021.07  2027.01  2031.45  2074.93
                             2075.39  2098.82  2105.13  2121.12  2126.54
                             2130.64  2137.25  2139.72  2142.48  2160.90
                             2170.17  2354.27  2413.35  2889.79  3828.25
                             4393.27  4400.90  4408.58  4412.38  4414.57
                             4462.07  4465.77  4474.23  4484.22  4490.62
                             4494.49  4510.77  4514.40  4520.64  4534.19
                             4580.49  5241.37  5261.62  5377.22  5492.56
                             5492.90  5534.60  5572.65

 Zero-point correction=                           0.373754 (Hartree/Particle)
 Thermal correction to Energy=                    0.419728
 Thermal correction to Enthalpy=                  0.421131
 Thermal correction to Gibbs Free Energy=         0.275745
 Sum of electronic and zero-point Energies=           -997.323213
 Sum of electronic and thermal Energies=              -997.277240
 Sum of electronic and thermal Enthalpies=            -997.275837
 Sum of electronic and thermal Free Energies=         -997.421223

                     E (Thermal)             CV                S
                      KCal/Mol        Cal/Mol-Kelvin    Cal/Mol-Kelvin
 Total                  263.383            115.136            205.870
 Electronic               0.000              0.000              0.000
 Translational            1.321              2.981             44.682
 Rotational               1.321              2.981             35.638
 Vibrational            260.741            109.175            125.550
 Vibration     1          0.881              1.987              8.461
 Vibration     2          0.881              1.987              8.063
 Vibration     3          0.881              1.986              7.055
 Vibration     4          0.882              1.984              6.030
 Vibration     5          0.883              1.983              5.603
 Vibration     6          0.884              1.980              5.175
 Vibration     7          0.884              1.979              4.952
 Vibration     8          0.892              1.961              3.838
 Vibration     9          0.893              1.959              3.767
 Vibration    10          0.894              1.957              3.674
 Vibration    11          0.897              1.951              3.492
 Vibration    12          0.900              1.943              3.309
 Vibration    13          0.907              1.929              3.038
 Vibration    14          0.908              1.926              2.983
 Vibration    15          0.919              1.901              2.658
 Vibration    16          0.923              1.893              2.569
 Vibration    17          0.927              1.884              2.477
 Vibration    18          0.930              1.878              2.426
 Vibration    19          0.933              1.871              2.363
 Vibration    20          0.945              1.846              2.176
 Vibration    21          0.949              1.838              2.124
 Vibration    22          0.951              1.834              2.098
 Vibration    23          0.964              1.806              1.934
 Vibration    24          0.976              1.781              1.810
 Vibration    25          0.984              1.765              1.741
 Vibration    26          0.995              1.741              1.645
 Vibration    27          0.999              1.735              1.620
 Vibration    28          1.015              1.701              1.503
 Vibration    29          1.024              1.684              1.448
 Vibration    30          1.032              1.669              1.403
 Vibration    31          1.036              1.660              1.378
 Vibration    32          1.057              1.620              1.270
 Vibration    33          1.070              1.596              1.213
 Vibration    34          1.078              1.580              1.177
 Vibration    35          1.079              1.578              1.173
 Vibration    36          1.084              1.569              1.152
 Vibration    37          1.094              1.551              1.114
 Vibration    38          1.150              1.450              0.929
 Vibration    39          1.179              1.400              0.851
 Vibration    40          1.216              1.339              0.766
 Vibration    41          1.269              1.255              0.663
 Vibration    42          1.286              1.227              0.633
 Vibration    43          1.300              1.207              0.611
 Vibration    44          1.360              1.120              0.526
 Vibration    45          1.401              1.063              0.475
 Vibration    46          1.443              1.008              0.430
 Vibration    47          1.453              0.994              0.420
 Vibration    48          1.456              0.991              0.417

 Optimization completed.
    -- Stationary point found.
 Normal termination of Gaussian 16 at Wed Jan 23 10:01:22 2019.
